 Entering Gaussian System, Link 0=g09
 Input=Phenyl-Iodide2.com
 Output=Phenyl-Iodide2.log
 Initial command:
 /usr/local/gaussian09/g09/l1.exe "/CDT/scratch/2371.1.mainqueue/Gau-19626.inp" -scrdir="/CDT/scratch/2371.1.mainqueue/"
 Entering Link 1 = /usr/local/gaussian09/g09/l1.exe PID=     19635.
  
 Copyright (c) 1988,1990,1992,1993,1995,1998,2003,2009,2013,
            Gaussian, Inc.  All Rights Reserved.
  
 This is part of the Gaussian(R) 09 program.  It is based on
 the Gaussian(R) 03 system (copyright 2003, Gaussian, Inc.),
 the Gaussian(R) 98 system (copyright 1998, Gaussian, Inc.),
 the Gaussian(R) 94 system (copyright 1995, Gaussian, Inc.),
 the Gaussian 92(TM) system (copyright 1992, Gaussian, Inc.),
 the Gaussian 90(TM) system (copyright 1990, Gaussian, Inc.),
 the Gaussian 88(TM) system (copyright 1988, Gaussian, Inc.),
 the Gaussian 86(TM) system (copyright 1986, Carnegie Mellon
 University), and the Gaussian 82(TM) system (copyright 1983,
 Carnegie Mellon University). Gaussian is a federally registered
 trademark of Gaussian, Inc.
  
 This software contains proprietary and confidential information,
 including trade secrets, belonging to Gaussian, Inc.
  
 This software is provided under written license and may be
 used, copied, transmitted, or stored only in accord with that
 written license.
  
 The following legend is applicable only to US Government
 contracts under FAR:
  
                    RESTRICTED RIGHTS LEGEND
  
 Use, reproduction and disclosure by the US Government is
 subject to restrictions as set forth in subparagraphs (a)
 and (c) of the Commercial Computer Software - Restricted
 Rights clause in FAR 52.227-19.
  
 Gaussian, Inc.
 340 Quinnipiac St., Bldg. 40, Wallingford CT 06492
  
  
 ---------------------------------------------------------------
 Warning -- This program may not be used in any manner that
 competes with the business of Gaussian, Inc. or will provide
 assistance to any competitor of Gaussian, Inc.  The licensee
 of this program is prohibited from giving any competitor of
 Gaussian, Inc. access to this program.  By using this program,
 the user acknowledges that Gaussian, Inc. is engaged in the
 business of creating and licensing software in the field of
 computational chemistry and represents and warrants to the
 licensee that it is not a competitor of Gaussian, Inc. and that
 it will not use this program in any manner prohibited above.
 ---------------------------------------------------------------
  

 Cite this work as:
 Gaussian 09, Revision D.01,
 M. J. Frisch, G. W. Trucks, H. B. Schlegel, G. E. Scuseria, 
 M. A. Robb, J. R. Cheeseman, G. Scalmani, V. Barone, B. Mennucci, 
 G. A. Petersson, H. Nakatsuji, M. Caricato, X. Li, H. P. Hratchian, 
 A. F. Izmaylov, J. Bloino, G. Zheng, J. L. Sonnenberg, M. Hada, 
 M. Ehara, K. Toyota, R. Fukuda, J. Hasegawa, M. Ishida, T. Nakajima, 
 Y. Honda, O. Kitao, H. Nakai, T. Vreven, J. A. Montgomery, Jr., 
 J. E. Peralta, F. Ogliaro, M. Bearpark, J. J. Heyd, E. Brothers, 
 K. N. Kudin, V. N. Staroverov, T. Keith, R. Kobayashi, J. Normand, 
 K. Raghavachari, A. Rendell, J. C. Burant, S. S. Iyengar, J. Tomasi, 
 M. Cossi, N. Rega, J. M. Millam, M. Klene, J. E. Knox, J. B. Cross, 
 V. Bakken, C. Adamo, J. Jaramillo, R. Gomperts, R. E. Stratmann, 
 O. Yazyev, A. J. Austin, R. Cammi, C. Pomelli, J. W. Ochterski, 
 R. L. Martin, K. Morokuma, V. G. Zakrzewski, G. A. Voth, 
 P. Salvador, J. J. Dannenberg, S. Dapprich, A. D. Daniels, 
 O. Farkas, J. B. Foresman, J. V. Ortiz, J. Cioslowski, 
 and D. J. Fox, Gaussian, Inc., Wallingford CT, 2013.
 
 ******************************************
 Gaussian 09:  EM64L-G09RevD.01 24-Apr-2013
                29-Jan-2019 
 ******************************************
 %nprocshared=4
 Will use up to    4 processors via shared memory.
 %mem=7GB
 %chk=Phenyl-Iodide2.chk
 ----------------------------------------------------
 #p opt B3LYP/gen pseudo=read nosym geom=connectivity
 ----------------------------------------------------
 1/14=-1,18=20,19=15,26=3,38=1,57=2/1,3;
 2/9=110,12=2,15=1,17=6,18=5,40=1/2;
 3/5=7,11=2,16=1,17=8,25=1,30=1,71=1,74=-5/1,2,3;
 4//1;
 5/5=2,38=5/2;
 6/7=2,8=2,9=2,10=2,28=1/1;
 7/30=1/1,2,3,16;
 1/14=-1,18=20,19=15,26=3/3(2);
 2/9=110,15=1/2;
 99//99;
 2/9=110,15=1/2;
 3/5=7,6=1,11=2,16=1,17=8,25=1,30=1,71=1,74=-5,82=7/1,2,3;
 4/5=5,16=3,69=1/1;
 5/5=2,38=5/2;
 7/30=1/1,2,3,16;
 1/14=-1,18=20,19=15,26=3/3(-5);
 2/9=110,15=1/2;
 6/7=2,8=2,9=2,10=2,19=2,28=1/1;
 99/9=1/99;
 Leave Link    1 at Tue Jan 29 13:52:39 2019, MaxMem=   939524096 cpu:         0.5
 (Enter /usr/local/gaussian09/g09/l101.exe)
 ---
 Opt
 ---
 Symbolic Z-matrix:
 Charge =  0 Multiplicity = 1
 C                    -1.75158  -1.8475    0.0012 
 C                    -0.35642  -1.8475    0.0012 
 C                     0.34112  -0.63975   0.0012 
 C                    -0.35654   0.56876   0. 
 C                    -1.75136   0.56868  -0.00048 
 C                    -2.44896  -0.63952   0.00052 
 H                    -2.30134  -2.79982   0.00165 
 H                     0.19309  -2.80001   0.00251 
 H                     0.19366   1.5209   -0.00006 
 H                    -2.30148   1.52096  -0.00143 
 H                    -3.54857  -0.63934   0.00034 
 I                     2.44112  -0.6396    0.00241 
 
 NAtoms=     12 NQM=       12 NQMF=       0 NMMI=      0 NMMIF=      0
                NMic=       0 NMicF=      0.
                    Isotopes and Nuclear Properties:
 (Nuclear quadrupole moments (NQMom) in fm**2, nuclear magnetic moments (NMagM)
  in nuclear magnetons)

  Atom         1           2           3           4           5           6           7           8           9          10
 IAtWgt=          12          12          12          12          12          12           1           1           1           1
 AtmWgt=  12.0000000  12.0000000  12.0000000  12.0000000  12.0000000  12.0000000   1.0078250   1.0078250   1.0078250   1.0078250
 NucSpn=           0           0           0           0           0           0           1           1           1           1
 AtZEff=   0.0000000   0.0000000   0.0000000   0.0000000   0.0000000   0.0000000   0.0000000   0.0000000   0.0000000   0.0000000
 NQMom=    0.0000000   0.0000000   0.0000000   0.0000000   0.0000000   0.0000000   0.0000000   0.0000000   0.0000000   0.0000000
 NMagM=    0.0000000   0.0000000   0.0000000   0.0000000   0.0000000   0.0000000   2.7928460   2.7928460   2.7928460   2.7928460
 AtZNuc=   6.0000000   6.0000000   6.0000000   6.0000000   6.0000000   6.0000000   1.0000000   1.0000000   1.0000000   1.0000000

  Atom        11          12
 IAtWgt=           1         127
 AtmWgt=   1.0078250 126.9004000
 NucSpn=           1           5
 AtZEff=   0.0000000   0.0000000
 NQMom=    0.0000000 -71.0000000
 NMagM=    2.7928460   2.8132800
 AtZNuc=   1.0000000  53.0000000
 Leave Link  101 at Tue Jan 29 13:52:40 2019, MaxMem=   939524096 cpu:         2.9
 (Enter /usr/local/gaussian09/g09/l103.exe)

 GradGradGradGradGradGradGradGradGradGradGradGradGradGradGradGradGradGrad
 Berny optimization.
 Initialization pass.
                           ----------------------------
                           !    Initial Parameters    !
                           ! (Angstroms and Degrees)  !
 --------------------------                            --------------------------
 ! Name  Definition              Value          Derivative Info.                !
 --------------------------------------------------------------------------------
 ! R1    R(1,2)                  1.3952         estimate D2E/DX2                !
 ! R2    R(1,6)                  1.3948         estimate D2E/DX2                !
 ! R3    R(1,7)                  1.0996         estimate D2E/DX2                !
 ! R4    R(2,3)                  1.3947         estimate D2E/DX2                !
 ! R5    R(2,8)                  1.0997         estimate D2E/DX2                !
 ! R6    R(3,4)                  1.3954         estimate D2E/DX2                !
 ! R7    R(3,12)                 2.1            estimate D2E/DX2                !
 ! R8    R(4,5)                  1.3948         estimate D2E/DX2                !
 ! R9    R(4,9)                  1.0997         estimate D2E/DX2                !
 ! R10   R(5,6)                  1.3951         estimate D2E/DX2                !
 ! R11   R(5,10)                 1.0998         estimate D2E/DX2                !
 ! R12   R(6,11)                 1.0996         estimate D2E/DX2                !
 ! A1    A(2,1,6)              119.9985         estimate D2E/DX2                !
 ! A2    A(2,1,7)              119.9972         estimate D2E/DX2                !
 ! A3    A(6,1,7)              120.0043         estimate D2E/DX2                !
 ! A4    A(1,2,3)              120.0086         estimate D2E/DX2                !
 ! A5    A(1,2,8)              119.9808         estimate D2E/DX2                !
 ! A6    A(3,2,8)              120.0106         estimate D2E/DX2                !
 ! A7    A(2,3,4)              119.9942         estimate D2E/DX2                !
 ! A8    A(2,3,12)             120.0128         estimate D2E/DX2                !
 ! A9    A(4,3,12)             119.993          estimate D2E/DX2                !
 ! A10   A(3,4,5)              119.994          estimate D2E/DX2                !
 ! A11   A(3,4,9)              119.9811         estimate D2E/DX2                !
 ! A12   A(5,4,9)              120.0249         estimate D2E/DX2                !
 ! A13   A(4,5,6)              120.0047         estimate D2E/DX2                !
 ! A14   A(4,5,10)             120.0113         estimate D2E/DX2                !
 ! A15   A(6,5,10)             119.984          estimate D2E/DX2                !
 ! A16   A(1,6,5)              120.0            estimate D2E/DX2                !
 ! A17   A(1,6,11)             120.008          estimate D2E/DX2                !
 ! A18   A(5,6,11)             119.992          estimate D2E/DX2                !
 ! D1    D(6,1,2,3)              0.0323         estimate D2E/DX2                !
 ! D2    D(6,1,2,8)            179.9532         estimate D2E/DX2                !
 ! D3    D(7,1,2,3)           -179.9729         estimate D2E/DX2                !
 ! D4    D(7,1,2,8)             -0.052          estimate D2E/DX2                !
 ! D5    D(2,1,6,5)              0.0149         estimate D2E/DX2                !
 ! D6    D(2,1,6,11)           179.9892         estimate D2E/DX2                !
 ! D7    D(7,1,6,5)           -179.9798         estimate D2E/DX2                !
 ! D8    D(7,1,6,11)            -0.0056         estimate D2E/DX2                !
 ! D9    D(1,2,3,4)             -0.0568         estimate D2E/DX2                !
 ! D10   D(1,2,3,12)           179.9619         estimate D2E/DX2                !
 ! D11   D(8,2,3,4)           -179.9777         estimate D2E/DX2                !
 ! D12   D(8,2,3,12)             0.041          estimate D2E/DX2                !
 ! D13   D(2,3,4,5)              0.0341         estimate D2E/DX2                !
 ! D14   D(2,3,4,9)           -179.9964         estimate D2E/DX2                !
 ! D15   D(12,3,4,5)          -179.9846         estimate D2E/DX2                !
 ! D16   D(12,3,4,9)            -0.0151         estimate D2E/DX2                !
 ! D17   D(3,4,5,6)              0.0131         estimate D2E/DX2                !
 ! D18   D(3,4,5,10)          -179.9995         estimate D2E/DX2                !
 ! D19   D(9,4,5,6)           -179.9563         estimate D2E/DX2                !
 ! D20   D(9,4,5,10)             0.0311         estimate D2E/DX2                !
 ! D21   D(4,5,6,1)             -0.0376         estimate D2E/DX2                !
 ! D22   D(4,5,6,11)           179.9881         estimate D2E/DX2                !
 ! D23   D(10,5,6,1)           179.975          estimate D2E/DX2                !
 ! D24   D(10,5,6,11)            0.0007         estimate D2E/DX2                !
 --------------------------------------------------------------------------------
 Trust Radius=3.00D-01 FncErr=1.00D-07 GrdErr=1.00D-06
 Number of steps in this run=     64 maximum allowed number of steps=    100.
 GradGradGradGradGradGradGradGradGradGradGradGradGradGradGradGradGradGrad

 Leave Link  103 at Tue Jan 29 13:52:40 2019, MaxMem=   939524096 cpu:         0.1
 (Enter /usr/local/gaussian09/g09/l202.exe)
                          Input orientation:                          
 ---------------------------------------------------------------------
 Center     Atomic      Atomic             Coordinates (Angstroms)
 Number     Number       Type             X           Y           Z
 ---------------------------------------------------------------------
      1          6           0       -1.751581   -1.847499    0.001199
      2          6           0       -0.356421   -1.847499    0.001199
      3          6           0        0.341118   -0.639748    0.001199
      4          6           0       -0.356537    0.568761    0.000000
      5          6           0       -1.751362    0.568683   -0.000479
      6          6           0       -2.448963   -0.639523    0.000517
      7          1           0       -2.301340   -2.799816    0.001649
      8          1           0        0.193088   -2.800012    0.002514
      9          1           0        0.193664    1.520904   -0.000059
     10          1           0       -2.301484    1.520964   -0.001432
     11          1           0       -3.548567   -0.639340    0.000337
     12         53           0        2.441117   -0.639596    0.002410
 ---------------------------------------------------------------------
                    Distance matrix (angstroms):
                    1          2          3          4          5
     1  C    0.000000
     2  C    1.395160   0.000000
     3  C    2.416205   1.394712   0.000000
     4  C    2.790065   2.416260   1.395427   0.000000
     5  C    2.416183   2.789946   2.416356   1.394825   0.000000
     6  C    1.394829   2.416183   2.790080   2.416236   1.395138
     7  H    1.099610   2.165553   3.412986   3.889675   3.413102
     8  H    2.165414   1.099655   2.165330   3.413316   3.889601
     9  H    3.889745   3.413024   2.165678   1.099680   2.165606
    10  H    3.413055   3.889707   3.413506   2.165528   1.099761
    11  H    2.165365   3.413128   3.889684   3.412999   2.165471
    12  I    4.363227   3.047171   2.100000   3.047457   4.363121
                    6          7          8          9         10
     6  C    0.000000
     7  H    2.165331   0.000000
     8  H    3.412938   2.494427   0.000000
     9  H    3.413344   4.989355   4.320917   0.000000
    10  H    2.165516   4.320781   4.989362   2.495147   0.000000
    11  H    1.099604   2.494641   4.320704   4.320988   2.494420
    12  I    4.890080   5.211281   3.117858   3.117501   5.211554
                   11         12
    11  H    0.000000
    12  I    5.989684   0.000000
 Symmetry turned off by external request.
 Stoichiometry    C6H5I
 Framework group  C1[X(C6H5I)]
 Deg. of freedom    30
 Full point group                 C1      NOp   1
 Rotational constants (GHZ):      5.6865079      0.7442016      0.6580780
 Leave Link  202 at Tue Jan 29 13:52:40 2019, MaxMem=   939524096 cpu:         0.0
 (Enter /usr/local/gaussian09/g09/l301.exe)
 General basis read from cards:  (5D, 7F)
 Centers:       7      8      9     10     11      1      2      3      4      5
 Centers:       6
 6-31g(d)
 ****
 Centers:      12
 lanl2dz
 ****
 ======================================================================================================
                                       Pseudopotential Parameters
 ======================================================================================================
  Center     Atomic      Valence      Angular      Power
  Number     Number     Electrons     Momentum     of R      Exponent        Coefficient   SO-Coeffient
 ======================================================================================================
    1          6
                                   No pseudopotential on this center.
    2          6
                                   No pseudopotential on this center.
    3          6
                                   No pseudopotential on this center.
    4          6
                                   No pseudopotential on this center.
    5          6
                                   No pseudopotential on this center.
    6          6
                                   No pseudopotential on this center.
    7          1
                                   No pseudopotential on this center.
    8          1
                                   No pseudopotential on this center.
    9          1
                                   No pseudopotential on this center.
   10          1
                                   No pseudopotential on this center.
   11          1
                                   No pseudopotential on this center.
   12         53            7
                                      F and up 
                                                     0        1.0715702       -0.07476210    0.00000000
                                                     1       44.1936028      -30.08112240    0.00000000
                                                     2       12.9367609      -75.37227210    0.00000000
                                                     2        3.1956412      -22.05637580    0.00000000
                                                     2        0.8589806       -1.69795850    0.00000000
                                      S - F
                                                     0      127.9202670        2.93800360    0.00000000
                                                     1       78.6211465       41.24712670    0.00000000
                                                     2       36.5146237      287.86800950    0.00000000
                                                     2        9.9065681      114.37585060    0.00000000
                                                     2        1.9420086       37.65477140    0.00000000
                                      P - F
                                                     0       13.0035304        2.22226300    0.00000000
                                                     1       76.0331404       39.40908310    0.00000000
                                                     2       24.1961684      177.40750020    0.00000000
                                                     2        6.4053433       77.98894620    0.00000000
                                                     2        1.5851786       25.75476410    0.00000000
                                      D - F
                                                     0       40.4278108        7.05243600    0.00000000
                                                     1       28.9084375       33.30416350    0.00000000
                                                     2       15.6268936      186.94538750    0.00000000
                                                     2        4.1442856       71.96883610    0.00000000
                                                     2        0.9377235        9.36306570    0.00000000
 ======================================================================================================
 Ernie: Thresh=  0.10000D-02 Tol=  0.10000D-05 Strict=F.
   102 basis functions,   200 primitive gaussians,   108 cartesian basis functions
    24 alpha electrons       24 beta electrons
       nuclear repulsion energy       238.0787638161 Hartrees.
 IExCor=  402 DFT=T Ex+Corr=B3LYP ExCW=0 ScaHFX=  0.200000
 ScaDFX=  0.800000  0.720000  1.000000  0.810000 ScalE2=  1.000000  1.000000
 IRadAn=      0 IRanWt=     -1 IRanGd=            0 ICorTp=0 IEmpDi=  4
 NAtoms=   12 NActive=   12 NUniq=   12 SFac= 1.00D+00 NAtFMM=   60 NAOKFM=F Big=F
 Integral buffers will be    131072 words long.
 Raffenetti 2 integral format.
 Two-electron integral symmetry is turned off.
 Leave Link  301 at Tue Jan 29 13:52:40 2019, MaxMem=   939524096 cpu:         0.5
 (Enter /usr/local/gaussian09/g09/l302.exe)
 NPDir=0 NMtPBC=     1 NCelOv=     1 NCel=       1 NClECP=     1 NCelD=      1
         NCelK=      1 NCelE2=     1 NClLst=     1 CellRange=     0.0.
 One-electron integrals computed using PRISM.
   1 Symmetry operations used in ECPInt.
 ECPInt:  NShTT=     741 NPrTT=    4403 LenC2=     742 LenP2D=    3451.
 LDataN:  DoStor=T MaxTD1= 5 Len=  102
 NBasis=   102 RedAO= T EigKep=  5.38D-04  NBF=   102
 NBsUse=   102 1.00D-06 EigRej= -1.00D+00 NBFU=   102
 Precomputing XC quadrature grid using
 IXCGrd= 4 IRadAn=           0 IRanWt=          -1 IRanGd=           0 AccXCQ= 0.00D+00.
 Defaulting to unpruned grid for atomic number  53.
 Generated NRdTot=       0 NPtTot=           0 NUsed=           0 NTot=          32
 NSgBfM=   108   108   108   108   108 MxSgAt=    12 MxSgA2=    12.
 Leave Link  302 at Tue Jan 29 13:52:40 2019, MaxMem=   939524096 cpu:         1.2
 (Enter /usr/local/gaussian09/g09/l303.exe)
 DipDrv:  MaxL=1.
 Leave Link  303 at Tue Jan 29 13:52:41 2019, MaxMem=   939524096 cpu:         0.4
 (Enter /usr/local/gaussian09/g09/l401.exe)
 ExpMin= 1.05D-01 ExpMax= 3.05D+03 ExpMxC= 4.57D+02 IAcc=1 IRadAn=         1 AccDes= 0.00D+00
 Harris functional with IExCor=  402 and IRadAn=       1 diagonalized for initial guess.
 HarFok:  IExCor=  402 AccDes= 0.00D+00 IRadAn=         1 IDoV= 1 UseB2=F ITyADJ=14
 ICtDFT=  3500011 ScaDFX=  1.000000  1.000000  1.000000  1.000000
 Defaulting to unpruned grid for atomic number  53.
 Defaulting to unpruned grid for atomic number  53.
 Defaulting to unpruned grid for atomic number  53.
 Defaulting to unpruned grid for atomic number  53.
 FoFCou: FMM=F IPFlag=           0 FMFlag=      100000 FMFlg1=           0
         NFxFlg=           0 DoJE=T BraDBF=F KetDBF=T FulRan=T
         wScrn=  0.000000 ICntrl=     500 IOpCl=  0 I1Cent=   200000004 NGrid=           0
         NMat0=    1 NMatS0=      1 NMatT0=    0 NMatD0=    1 NMtDS0=    0 NMtDT0=    0
 Symmetry not used in FoFCou.
 Harris En= -242.962202607714    
 JPrj=0 DoOrth=F DoCkMO=F.
 Leave Link  401 at Tue Jan 29 13:52:41 2019, MaxMem=   939524096 cpu:         1.5
 (Enter /usr/local/gaussian09/g09/l502.exe)
 Closed shell SCF:
 Using DIIS extrapolation, IDIIS=  1040.
 Two-electron integral symmetry not used.
 Keep R1 ints in memory in canonical form, NReq=14785935.
 IVT=       54862 IEndB=       54862 NGot=   939524096 MDV=   925669604
 LenX=   925669604 LenY=   925657499
 Requested convergence on RMS density matrix=1.00D-08 within 128 cycles.
 Requested convergence on MAX density matrix=1.00D-06.
 Requested convergence on             energy=1.00D-06.
 No special actions if energy rises.
 FoFCou: FMM=F IPFlag=           0 FMFlag=           0 FMFlg1=           0
         NFxFlg=           0 DoJE=F BraDBF=F KetDBF=F FulRan=T
         wScrn=  0.000000 ICntrl=     600 IOpCl=  0 I1Cent=           0 NGrid=           0
         NMat0=    1 NMatS0=   5253 NMatT0=    0 NMatD0=    1 NMtDS0=    0 NMtDT0=    0
 Symmetry not used in FoFCou.
 Integral accuracy reduced to 1.0D-05 until final iterations.

 Cycle   1  Pass 0  IDiag  1:
 Defaulting to unpruned grid for atomic number  53.
 Defaulting to unpruned grid for atomic number  53.
 Defaulting to unpruned grid for atomic number  53.
 Defaulting to unpruned grid for atomic number  53.
 E= -242.866302645536    
 DIIS: error= 4.78D-02 at cycle   1 NSaved=   1.
 NSaved= 1 IEnMin= 1 EnMin= -242.866302645536     IErMin= 1 ErrMin= 4.78D-02
 ErrMax= 4.78D-02  0.00D+00 EMaxC= 1.00D-01 BMatC= 1.26D-01 BMatP= 1.26D-01
 IDIUse=3 WtCom= 5.22D-01 WtEn= 4.78D-01
 Coeff-Com:  0.100D+01
 Coeff-En:   0.100D+01
 Coeff:      0.100D+01
 Gap=     0.372 Goal=   None    Shift=    0.000
 GapD=    0.372 DampG=1.000 DampE=0.500 DampFc=0.5000 IDamp=-1.
 Damping current iteration by 5.00D-01
 RMSDP=8.62D-03 MaxDP=1.19D-01              OVMax= 2.08D-01

 Cycle   2  Pass 0  IDiag  1:
 E= -242.931462140436     Delta-E=       -0.065159494900 Rises=F Damp=T
 DIIS: error= 7.28D-03 at cycle   2 NSaved=   2.
 NSaved= 2 IEnMin= 2 EnMin= -242.931462140436     IErMin= 2 ErrMin= 7.28D-03
 ErrMax= 7.28D-03  0.00D+00 EMaxC= 1.00D-01 BMatC= 5.83D-03 BMatP= 1.26D-01
 IDIUse=3 WtCom= 9.27D-01 WtEn= 7.28D-02
 Coeff-Com:  0.867D-01 0.913D+00
 Coeff-En:   0.163D+00 0.837D+00
 Coeff:      0.922D-01 0.908D+00
 Gap=     0.235 Goal=   None    Shift=    0.000
 RMSDP=2.31D-03 MaxDP=2.35D-02 DE=-6.52D-02 OVMax= 1.50D-01

 Cycle   3  Pass 0  IDiag  1:
 E= -243.019519146701     Delta-E=       -0.088057006265 Rises=F Damp=F
 DIIS: error= 4.09D-03 at cycle   3 NSaved=   3.
 NSaved= 3 IEnMin= 3 EnMin= -243.019519146701     IErMin= 3 ErrMin= 4.09D-03
 ErrMax= 4.09D-03  0.00D+00 EMaxC= 1.00D-01 BMatC= 8.75D-04 BMatP= 5.83D-03
 IDIUse=3 WtCom= 9.59D-01 WtEn= 4.09D-02
 Coeff-Com: -0.107D-01 0.236D+00 0.774D+00
 Coeff-En:   0.000D+00 0.000D+00 0.100D+01
 Coeff:     -0.103D-01 0.227D+00 0.784D+00
 Gap=     0.213 Goal=   None    Shift=    0.000
 RMSDP=4.95D-04 MaxDP=9.03D-03 DE=-8.81D-02 OVMax= 1.15D-02

 Cycle   4  Pass 0  IDiag  1:
 E= -243.020237428884     Delta-E=       -0.000718282182 Rises=F Damp=F
 DIIS: error= 1.33D-03 at cycle   4 NSaved=   4.
 NSaved= 4 IEnMin= 4 EnMin= -243.020237428884     IErMin= 4 ErrMin= 1.33D-03
 ErrMax= 1.33D-03  0.00D+00 EMaxC= 1.00D-01 BMatC= 2.19D-04 BMatP= 8.75D-04
 IDIUse=3 WtCom= 9.87D-01 WtEn= 1.33D-02
 Coeff-Com: -0.896D-02 0.741D-01 0.378D+00 0.557D+00
 Coeff-En:   0.000D+00 0.000D+00 0.911D-01 0.909D+00
 Coeff:     -0.884D-02 0.731D-01 0.374D+00 0.562D+00
 Gap=     0.211 Goal=   None    Shift=    0.000
 RMSDP=2.23D-04 MaxDP=5.87D-03 DE=-7.18D-04 OVMax= 7.43D-03

 Cycle   5  Pass 0  IDiag  1:
 E= -243.020391774679     Delta-E=       -0.000154345796 Rises=F Damp=F
 DIIS: error= 8.19D-04 at cycle   5 NSaved=   5.
 NSaved= 5 IEnMin= 5 EnMin= -243.020391774679     IErMin= 5 ErrMin= 8.19D-04
 ErrMax= 8.19D-04  0.00D+00 EMaxC= 1.00D-01 BMatC= 6.87D-05 BMatP= 2.19D-04
 IDIUse=3 WtCom= 9.92D-01 WtEn= 8.19D-03
 Coeff-Com: -0.383D-02 0.656D-02 0.101D+00 0.373D+00 0.522D+00
 Coeff-En:   0.000D+00 0.000D+00 0.000D+00 0.280D+00 0.720D+00
 Coeff:     -0.380D-02 0.651D-02 0.101D+00 0.373D+00 0.524D+00
 Gap=     0.212 Goal=   None    Shift=    0.000
 RMSDP=1.03D-04 MaxDP=2.19D-03 DE=-1.54D-04 OVMax= 2.92D-03

 Cycle   6  Pass 0  IDiag  1:
 E= -243.020463710756     Delta-E=       -0.000071936076 Rises=F Damp=F
 DIIS: error= 2.63D-04 at cycle   6 NSaved=   6.
 NSaved= 6 IEnMin= 6 EnMin= -243.020463710756     IErMin= 6 ErrMin= 2.63D-04
 ErrMax= 2.63D-04  0.00D+00 EMaxC= 1.00D-01 BMatC= 3.61D-06 BMatP= 6.87D-05
 IDIUse=3 WtCom= 9.97D-01 WtEn= 2.63D-03
 Coeff-Com: -0.197D-02 0.930D-03 0.482D-01 0.209D+00 0.323D+00 0.421D+00
 Coeff-En:   0.000D+00 0.000D+00 0.000D+00 0.000D+00 0.000D+00 0.100D+01
 Coeff:     -0.196D-02 0.927D-03 0.481D-01 0.209D+00 0.322D+00 0.422D+00
 Gap=     0.212 Goal=   None    Shift=    0.000
 RMSDP=2.20D-05 MaxDP=3.51D-04 DE=-7.19D-05 OVMax= 1.06D-03

 Cycle   7  Pass 0  IDiag  1:
 E= -243.020467773220     Delta-E=       -0.000004062464 Rises=F Damp=F
 DIIS: error= 3.31D-05 at cycle   7 NSaved=   7.
 NSaved= 7 IEnMin= 7 EnMin= -243.020467773220     IErMin= 7 ErrMin= 3.31D-05
 ErrMax= 3.31D-05  0.00D+00 EMaxC= 1.00D-01 BMatC= 6.42D-08 BMatP= 3.61D-06
 IDIUse=1 WtCom= 1.00D+00 WtEn= 0.00D+00
 Coeff-Com: -0.961D-04-0.904D-03 0.277D-02 0.237D-01 0.390D-01 0.139D+00
 Coeff-Com:  0.797D+00
 Coeff:     -0.961D-04-0.904D-03 0.277D-02 0.237D-01 0.390D-01 0.139D+00
 Coeff:      0.797D+00
 Gap=     0.212 Goal=   None    Shift=    0.000
 RMSDP=5.09D-06 MaxDP=8.57D-05 DE=-4.06D-06 OVMax= 1.16D-04

 Initial convergence to 1.0D-05 achieved.  Increase integral accuracy.
 Cycle   8  Pass 1  IDiag  1:
 E= -243.020232716226     Delta-E=        0.000235056993 Rises=F Damp=F
 DIIS: error= 6.51D-05 at cycle   1 NSaved=   1.
 NSaved= 1 IEnMin= 1 EnMin= -243.020232716226     IErMin= 1 ErrMin= 6.51D-05
 ErrMax= 6.51D-05  0.00D+00 EMaxC= 1.00D-01 BMatC= 1.44D-07 BMatP= 1.44D-07
 IDIUse=1 WtCom= 1.00D+00 WtEn= 0.00D+00
 Coeff-Com:  0.100D+01
 Coeff:      0.100D+01
 Gap=     0.212 Goal=   None    Shift=    0.000
 RMSDP=5.09D-06 MaxDP=8.57D-05 DE= 2.35D-04 OVMax= 3.97D-04

 Cycle   9  Pass 1  IDiag  1:
 E= -243.020232984585     Delta-E=       -0.000000268359 Rises=F Damp=F
 DIIS: error= 1.96D-05 at cycle   2 NSaved=   2.
 NSaved= 2 IEnMin= 2 EnMin= -243.020232984585     IErMin= 2 ErrMin= 1.96D-05
 ErrMax= 1.96D-05  0.00D+00 EMaxC= 1.00D-01 BMatC= 1.65D-08 BMatP= 1.44D-07
 IDIUse=1 WtCom= 1.00D+00 WtEn= 0.00D+00
 Coeff-Com:  0.170D+00 0.830D+00
 Coeff:      0.170D+00 0.830D+00
 Gap=     0.212 Goal=   None    Shift=    0.000
 RMSDP=4.54D-06 MaxDP=9.85D-05 DE=-2.68D-07 OVMax= 1.26D-04

 Cycle  10  Pass 1  IDiag  1:
 E= -243.020232988407     Delta-E=       -0.000000003823 Rises=F Damp=F
 DIIS: error= 1.60D-05 at cycle   3 NSaved=   3.
 NSaved= 3 IEnMin= 3 EnMin= -243.020232988407     IErMin= 3 ErrMin= 1.60D-05
 ErrMax= 1.60D-05  0.00D+00 EMaxC= 1.00D-01 BMatC= 1.93D-08 BMatP= 1.65D-08
 IDIUse=1 WtCom= 1.00D+00 WtEn= 0.00D+00
 Coeff-Com:  0.381D-01 0.519D+00 0.443D+00
 Coeff:      0.381D-01 0.519D+00 0.443D+00
 Gap=     0.212 Goal=   None    Shift=    0.000
 RMSDP=1.95D-06 MaxDP=4.03D-05 DE=-3.82D-09 OVMax= 6.37D-05

 Cycle  11  Pass 1  IDiag  1:
 E= -243.020233009387     Delta-E=       -0.000000020979 Rises=F Damp=F
 DIIS: error= 4.53D-06 at cycle   4 NSaved=   4.
 NSaved= 4 IEnMin= 4 EnMin= -243.020233009387     IErMin= 4 ErrMin= 4.53D-06
 ErrMax= 4.53D-06  0.00D+00 EMaxC= 1.00D-01 BMatC= 1.63D-09 BMatP= 1.65D-08
 IDIUse=1 WtCom= 1.00D+00 WtEn= 0.00D+00
 Coeff-Com: -0.830D-02 0.167D+00 0.256D+00 0.585D+00
 Coeff:     -0.830D-02 0.167D+00 0.256D+00 0.585D+00
 Gap=     0.212 Goal=   None    Shift=    0.000
 RMSDP=5.11D-07 MaxDP=1.27D-05 DE=-2.10D-08 OVMax= 1.56D-05

 Cycle  12  Pass 1  IDiag  1:
 E= -243.020233011291     Delta-E=       -0.000000001904 Rises=F Damp=F
 DIIS: error= 8.80D-07 at cycle   5 NSaved=   5.
 NSaved= 5 IEnMin= 5 EnMin= -243.020233011291     IErMin= 5 ErrMin= 8.80D-07
 ErrMax= 8.80D-07  0.00D+00 EMaxC= 1.00D-01 BMatC= 1.01D-10 BMatP= 1.63D-09
 IDIUse=1 WtCom= 1.00D+00 WtEn= 0.00D+00
 Coeff-Com: -0.572D-02 0.705D-01 0.123D+00 0.321D+00 0.491D+00
 Coeff:     -0.572D-02 0.705D-01 0.123D+00 0.321D+00 0.491D+00
 Gap=     0.212 Goal=   None    Shift=    0.000
 RMSDP=1.21D-07 MaxDP=1.93D-06 DE=-1.90D-09 OVMax= 3.25D-06

 Cycle  13  Pass 1  IDiag  1:
 E= -243.020233011398     Delta-E=       -0.000000000107 Rises=F Damp=F
 DIIS: error= 1.74D-07 at cycle   6 NSaved=   6.
 NSaved= 6 IEnMin= 6 EnMin= -243.020233011398     IErMin= 6 ErrMin= 1.74D-07
 ErrMax= 1.74D-07  0.00D+00 EMaxC= 1.00D-01 BMatC= 2.74D-12 BMatP= 1.01D-10
 IDIUse=1 WtCom= 1.00D+00 WtEn= 0.00D+00
 Coeff-Com: -0.107D-02 0.844D-02 0.193D-01 0.557D-01 0.173D+00 0.745D+00
 Coeff:     -0.107D-02 0.844D-02 0.193D-01 0.557D-01 0.173D+00 0.745D+00
 Gap=     0.212 Goal=   None    Shift=    0.000
 RMSDP=3.62D-08 MaxDP=5.18D-07 DE=-1.07D-10 OVMax= 1.03D-06

 Cycle  14  Pass 1  IDiag  1:
 E= -243.020233011400     Delta-E=       -0.000000000002 Rises=F Damp=F
 DIIS: error= 5.86D-08 at cycle   7 NSaved=   7.
 NSaved= 7 IEnMin= 7 EnMin= -243.020233011400     IErMin= 7 ErrMin= 5.86D-08
 ErrMax= 5.86D-08  0.00D+00 EMaxC= 1.00D-01 BMatC= 4.58D-13 BMatP= 2.74D-12
 IDIUse=1 WtCom= 1.00D+00 WtEn= 0.00D+00
 Coeff-Com: -0.482D-03 0.244D-02 0.664D-02 0.205D-01 0.697D-01 0.377D+00
 Coeff-Com:  0.524D+00
 Coeff:     -0.482D-03 0.244D-02 0.664D-02 0.205D-01 0.697D-01 0.377D+00
 Coeff:      0.524D+00
 Gap=     0.212 Goal=   None    Shift=    0.000
 RMSDP=1.09D-08 MaxDP=1.36D-07 DE=-1.59D-12 OVMax= 2.98D-07

 Cycle  15  Pass 1  IDiag  1:
 E= -243.020233011400     Delta-E=        0.000000000000 Rises=F Damp=F
 DIIS: error= 1.62D-08 at cycle   8 NSaved=   8.
 NSaved= 8 IEnMin= 8 EnMin= -243.020233011400     IErMin= 8 ErrMin= 1.62D-08
 ErrMax= 1.62D-08  0.00D+00 EMaxC= 1.00D-01 BMatC= 3.66D-14 BMatP= 4.58D-13
 IDIUse=1 WtCom= 1.00D+00 WtEn= 0.00D+00
 Coeff-Com: -0.344D-04-0.432D-03-0.380D-03 0.213D-03 0.721D-02 0.837D-01
 Coeff-Com:  0.241D+00 0.669D+00
 Coeff:     -0.344D-04-0.432D-03-0.380D-03 0.213D-03 0.721D-02 0.837D-01
 Coeff:      0.241D+00 0.669D+00
 Gap=     0.212 Goal=   None    Shift=    0.000
 RMSDP=2.59D-09 MaxDP=3.38D-08 DE=-4.55D-13 OVMax= 8.39D-08

 SCF Done:  E(RB3LYP) =  -243.020233011     A.U. after   15 cycles
            NFock= 15  Conv=0.26D-08     -V/T= 2.0422
 KE= 2.331851278039D+02 PE=-1.034199016884D+03 EE= 3.199148922529D+02
 Leave Link  502 at Tue Jan 29 13:52:49 2019, MaxMem=   939524096 cpu:        28.0
 (Enter /usr/local/gaussian09/g09/l601.exe)
 Copying SCF densities to generalized density rwf, IOpCl= 0 IROHF=0.

 **********************************************************************

            Population analysis using the SCF density.

 **********************************************************************

 Alpha  occ. eigenvalues --  -10.23591 -10.20061 -10.20056 -10.19782 -10.19778
 Alpha  occ. eigenvalues --  -10.19540  -0.86734  -0.76950  -0.75617  -0.67965
 Alpha  occ. eigenvalues --   -0.61539  -0.59288  -0.51885  -0.46153  -0.45920
 Alpha  occ. eigenvalues --   -0.43113  -0.40829  -0.38256  -0.35673  -0.34067
 Alpha  occ. eigenvalues --   -0.29647  -0.26739  -0.26186  -0.23768
 Alpha virt. eigenvalues --   -0.02564  -0.01290  -0.01122   0.09436   0.13128
 Alpha virt. eigenvalues --    0.14716   0.15237   0.17544   0.17651   0.27839
 Alpha virt. eigenvalues --    0.27989   0.29742   0.30194   0.36676   0.39003
 Alpha virt. eigenvalues --    0.39808   0.47772   0.51892   0.54036   0.55055
 Alpha virt. eigenvalues --    0.57108   0.58820   0.58832   0.60002   0.60360
 Alpha virt. eigenvalues --    0.60615   0.61854   0.65349   0.66030   0.67195
 Alpha virt. eigenvalues --    0.73720   0.82121   0.82635   0.84016   0.85071
 Alpha virt. eigenvalues --    0.91131   0.92825   0.93787   0.96853   1.06633
 Alpha virt. eigenvalues --    1.08861   1.09748   1.14228   1.16674   1.24177
 Alpha virt. eigenvalues --    1.32868   1.38090   1.41902   1.46682   1.47091
 Alpha virt. eigenvalues --    1.49625   1.50015   1.67971   1.76182   1.77996
 Alpha virt. eigenvalues --    1.85509   1.92195   1.94618   2.04802   2.05434
 Alpha virt. eigenvalues --    2.13425   2.13552   2.13694   2.14372   2.28787
 Alpha virt. eigenvalues --    2.29442   2.30692   2.49167   2.53501   2.63982
 Alpha virt. eigenvalues --    2.64550   2.68647   2.70707   2.71479   2.74260
 Alpha virt. eigenvalues --    3.00964   3.35224   9.98518
          Condensed to atoms (all electrons):
               1          2          3          4          5          6
     1  C    4.826321   0.546598  -0.020870  -0.041934  -0.027840   0.544826
     2  C    0.546598   4.861705   0.504106  -0.027323  -0.041942  -0.019958
     3  C   -0.020870   0.504106   5.233690   0.503661  -0.020878  -0.053842
     4  C   -0.041934  -0.027323   0.503661   4.861839   0.546923  -0.019968
     5  C   -0.027840  -0.041942  -0.020878   0.546923   4.826350   0.544499
     6  C    0.544826  -0.019958  -0.053842  -0.019968   0.544499   4.849997
     7  H    0.361881  -0.043385   0.005654   0.000428   0.004541  -0.042132
     8  H   -0.034595   0.361274  -0.042283   0.003953   0.000651   0.004304
     9  H    0.000651   0.003951  -0.042260   0.361261  -0.034576   0.004299
    10  H    0.004539   0.000428   0.005647  -0.043378   0.361861  -0.042119
    11  H   -0.041602   0.004934   0.000442   0.004933  -0.041602   0.358952
    12  I    0.001314  -0.068247   0.263622  -0.068239   0.001311   0.001406
               7          8          9         10         11         12
     1  C    0.361881  -0.034595   0.000651   0.004539  -0.041602   0.001314
     2  C   -0.043385   0.361274   0.003951   0.000428   0.004934  -0.068247
     3  C    0.005654  -0.042283  -0.042260   0.005647   0.000442   0.263622
     4  C    0.000428   0.003953   0.361261  -0.043378   0.004933  -0.068239
     5  C    0.004541   0.000651  -0.034576   0.361861  -0.041602   0.001311
     6  C   -0.042132   0.004304   0.004299  -0.042119   0.358952   0.001406
     7  H    0.585470  -0.005776   0.000013  -0.000171  -0.005649  -0.000255
     8  H   -0.005776   0.567278  -0.000159   0.000013  -0.000162  -0.001856
     9  H    0.000013  -0.000159   0.567206  -0.005770  -0.000162  -0.001833
    10  H   -0.000171   0.000013  -0.005770   0.585476  -0.005648  -0.000255
    11  H   -0.005649  -0.000162  -0.000162  -0.005648   0.589632   0.000028
    12  I   -0.000255  -0.001856  -0.001833  -0.000255   0.000028   6.712565
 Mulliken charges:
               1
     1  C   -0.119291
     2  C   -0.082140
     3  C   -0.336687
     4  C   -0.082155
     5  C   -0.119298
     6  C   -0.130263
     7  H    0.139380
     8  H    0.147360
     9  H    0.147378
    10  H    0.139375
    11  H    0.135904
    12  I    0.160438
 Sum of Mulliken charges =   0.00000
 Mulliken charges with hydrogens summed into heavy atoms:
               1
     1  C    0.020089
     2  C    0.065220
     3  C   -0.336687
     4  C    0.065223
     5  C    0.020077
     6  C    0.005641
    12  I    0.160438
 Electronic spatial extent (au):  <R**2>=            880.2387
 Charge=              0.0000 electrons
 Dipole moment (field-independent basis, Debye):
    X=             -1.6776    Y=             -0.0002    Z=             -0.0003  Tot=              1.6776
 Quadrupole moment (field-independent basis, Debye-Ang):
   XX=            -50.8187   YY=            -49.9795   ZZ=            -58.5296
   XY=              1.0738   XZ=              0.0009   YZ=             -0.0057
 Traceless Quadrupole moment (field-independent basis, Debye-Ang):
   XX=              2.2906   YY=              3.1298   ZZ=             -5.4204
   XY=              1.0738   XZ=              0.0009   YZ=             -0.0057
 Octapole moment (field-independent basis, Debye-Ang**2):
  XXX=            -39.8972  YYY=             95.8833  ZZZ=             -0.2199  XYY=            -18.9271
  XXY=             32.5043  XXZ=             -0.0626  XZZ=             -9.8001  YZZ=             37.4296
  YYZ=             -0.0589  XYZ=              0.0061
 Hexadecapole moment (field-independent basis, Debye-Ang**3):
 XXXX=          -1142.0664 YYYY=           -420.6936 ZZZZ=            -76.7789 XXXY=             25.5275
 XXXZ=             -0.2487 YYYX=             35.4622 YYYZ=              0.1663 ZZZX=             -0.3236
 ZZZY=              0.2262 XXYY=           -277.4396 XXZZ=           -238.1434 YYZZ=            -96.1611
 XXYZ=              0.0479 YYXZ=             -0.1125 ZZXY=              6.2747
 N-N= 2.380787638161D+02 E-N=-1.034199014954D+03  KE= 2.331851278039D+02
 No NMR shielding tensors so no spin-rotation constants.
 Leave Link  601 at Tue Jan 29 13:52:49 2019, MaxMem=   939524096 cpu:         1.7
 (Enter /usr/local/gaussian09/g09/l701.exe)
 Compute integral first derivatives.
 ... and contract with generalized density number  0.
   1 Symmetry operations used in ECPInt.
 ECPInt:  NShTT=     741 NPrTT=    4403 LenC2=     742 LenP2D=    3451.
 LDataN:  DoStor=T MaxTD1= 6 Len=  172
 Leave Link  701 at Tue Jan 29 13:52:50 2019, MaxMem=   939524096 cpu:         2.7
 (Enter /usr/local/gaussian09/g09/l702.exe)
 L702 exits ... SP integral derivatives will be done elsewhere.
 Leave Link  702 at Tue Jan 29 13:52:50 2019, MaxMem=   939524096 cpu:         0.3
 (Enter /usr/local/gaussian09/g09/l703.exe)
 Compute integral first derivatives, UseDBF=F ICtDFT=           0.
 Integral derivatives from FoFJK, PRISM(SPDF).
 Calling FoFJK, ICntrl=      2127 FMM=F ISym2X=0 I1Cent= 0 IOpClX= 0 NMat=1 NMatS=1 NMatT=0.
 FoFJK:  IHMeth= 1 ICntrl=    2127 DoSepK=F KAlg= 0 I1Cent=   0 FoldK=F
 IRaf=         0 NMat=   1 IRICut=       1 DoRegI=T DoRafI=F ISym2E= 0.
 FoFCou: FMM=F IPFlag=           0 FMFlag=      100000 FMFlg1=         800
         NFxFlg=           0 DoJE=F BraDBF=F KetDBF=F FulRan=T
         wScrn=  0.000000 ICntrl=    2127 IOpCl=  0 I1Cent=           0 NGrid=           0
         NMat0=    1 NMatS0=      1 NMatT0=    0 NMatD0=    1 NMtDS0=    0 NMtDT0=    0
 Symmetry not used in FoFCou.
 Defaulting to unpruned grid for atomic number  53.
 Defaulting to unpruned grid for atomic number  53.
 Defaulting to unpruned grid for atomic number  53.
 Defaulting to unpruned grid for atomic number  53.
 Leave Link  703 at Tue Jan 29 13:52:53 2019, MaxMem=   939524096 cpu:         9.5
 (Enter /usr/local/gaussian09/g09/l716.exe)
 Dipole        =-6.60022963D-01-7.81446396D-05-1.21542922D-04
 -------------------------------------------------------------------
 Center     Atomic                   Forces (Hartrees/Bohr)
 Number     Number              X              Y              Z
 -------------------------------------------------------------------
      1        6          -0.004923880   -0.004986886   -0.000015500
      2        6           0.007380939   -0.013094421    0.000122159
      3        6          -0.014759437    0.000377422   -0.000062404
      4        6           0.007756847    0.012675239    0.000030063
      5        6          -0.005162396    0.004995741    0.000016037
      6        6          -0.011024213    0.000106339   -0.000055221
      7        1           0.005218886    0.007064617    0.000001546
      8        1          -0.005074418    0.007933345   -0.000047201
      9        1          -0.005134394   -0.007926647   -0.000018163
     10        1           0.005282446   -0.007132599    0.000015587
     11        1           0.008581811   -0.000008763    0.000005798
     12       53           0.011857808   -0.000003387    0.000007298
 -------------------------------------------------------------------
 Cartesian Forces:  Max     0.014759437 RMS     0.006313804
 Leave Link  716 at Tue Jan 29 13:52:53 2019, MaxMem=   939524096 cpu:         0.2
 (Enter /usr/local/gaussian09/g09/l103.exe)

 GradGradGradGradGradGradGradGradGradGradGradGradGradGradGradGradGradGrad
 Berny optimization.
 FormGI is forming the generalized inverse of G from B-inverse, IUseBI=4.
 Internal  Forces:  Max     0.011857810 RMS     0.003298450
 Search for a local minimum.
 Step number   1 out of a maximum of   64
 All quantities printed in internal units (Hartrees-Bohrs-Radians)
 RMS Force = .32985D-02 SwitMx=.10000D-02 MixMth= 1
 Mixed Optimization -- RFO/linear search
 Second derivative matrix not updated -- first step.
 ITU=  0
     Eigenvalues ---    0.02152   0.02153   0.02154   0.02155   0.02155
     Eigenvalues ---    0.02155   0.02155   0.02156   0.02157   0.14003
     Eigenvalues ---    0.16000   0.16000   0.16000   0.16000   0.16000
     Eigenvalues ---    0.22000   0.22000   0.23486   0.25000   0.33709
     Eigenvalues ---    0.33718   0.33720   0.33725   0.33726   0.42116
     Eigenvalues ---    0.42305   0.46412   0.46453   0.46466   0.46497
 RFO step:  Lambda=-2.35321596D-03 EMin= 2.15189817D-02
 Linear search not attempted -- first point.
 Iteration  1 RMS(Cart)=  0.01234706 RMS(Int)=  0.00002336
 Iteration  2 RMS(Cart)=  0.00003219 RMS(Int)=  0.00000183
 Iteration  3 RMS(Cart)=  0.00000000 RMS(Int)=  0.00000183
 ITry= 1 IFail=0 DXMaxC= 6.82D-02 DCOld= 1.00D+10 DXMaxT= 3.00D-01 DXLimC= 3.00D+00 Rises=F
 Variable       Old X    -DE/DX   Delta X   Delta X   Delta X     New X
                                 (Linear)    (Quad)   (Total)
    R1        2.63647   0.00095   0.00000   0.00205   0.00205   2.63852
    R2        2.63584   0.00081   0.00000   0.00155   0.00154   2.63739
    R3        2.07796  -0.00873   0.00000  -0.02570  -0.02570   2.05226
    R4        2.63562   0.00181   0.00000   0.00406   0.00407   2.63969
    R5        2.07805  -0.00941   0.00000  -0.02771  -0.02771   2.05034
    R6        2.63697   0.00139   0.00000   0.00316   0.00316   2.64014
    R7        3.96842   0.01186   0.00000   0.08328   0.08328   4.05170
    R8        2.63584   0.00107   0.00000   0.00229   0.00229   2.63813
    R9        2.07809  -0.00943   0.00000  -0.02778  -0.02778   2.05031
   R10        2.63643   0.00069   0.00000   0.00130   0.00130   2.63773
   R11        2.07825  -0.00882   0.00000  -0.02598  -0.02598   2.05227
   R12        2.07795  -0.00858   0.00000  -0.02527  -0.02527   2.05268
    A1        2.09437   0.00149   0.00000   0.00657   0.00657   2.10094
    A2        2.09435  -0.00177   0.00000  -0.00961  -0.00961   2.08474
    A3        2.09447   0.00028   0.00000   0.00304   0.00304   2.09751
    A4        2.09455  -0.00214   0.00000  -0.00899  -0.00899   2.08555
    A5        2.09406   0.00062   0.00000   0.00174   0.00174   2.09580
    A6        2.09458   0.00152   0.00000   0.00726   0.00725   2.10183
    A7        2.09429   0.00214   0.00000   0.00936   0.00936   2.10365
    A8        2.09462  -0.00108   0.00000  -0.00471  -0.00471   2.08991
    A9        2.09427  -0.00106   0.00000  -0.00465  -0.00465   2.08963
   A10        2.09429  -0.00209   0.00000  -0.00881  -0.00881   2.08548
   A11        2.09407   0.00154   0.00000   0.00748   0.00748   2.10154
   A12        2.09483   0.00054   0.00000   0.00134   0.00134   2.09616
   A13        2.09448   0.00150   0.00000   0.00654   0.00654   2.10102
   A14        2.09459  -0.00180   0.00000  -0.00971  -0.00971   2.08488
   A15        2.09411   0.00029   0.00000   0.00317   0.00317   2.09729
   A16        2.09440  -0.00091   0.00000  -0.00466  -0.00467   2.08973
   A17        2.09453   0.00045   0.00000   0.00228   0.00229   2.09682
   A18        2.09426   0.00046   0.00000   0.00238   0.00238   2.09664
    D1        0.00056  -0.00002   0.00000  -0.00062  -0.00062  -0.00005
    D2        3.14078   0.00002   0.00000   0.00080   0.00080   3.14158
    D3       -3.14112  -0.00001   0.00000  -0.00060  -0.00059   3.14147
    D4       -0.00091   0.00002   0.00000   0.00083   0.00082  -0.00008
    D5        0.00026  -0.00001   0.00000  -0.00033  -0.00033  -0.00007
    D6        3.14140   0.00001   0.00000   0.00023   0.00023  -3.14155
    D7       -3.14124  -0.00001   0.00000  -0.00035  -0.00035   3.14159
    D8       -0.00010   0.00000   0.00000   0.00020   0.00020   0.00011
    D9       -0.00099   0.00003   0.00000   0.00109   0.00109   0.00010
   D10        3.14093   0.00002   0.00000   0.00070   0.00070  -3.14156
   D11       -3.14120  -0.00001   0.00000  -0.00033  -0.00032  -3.14153
   D12        0.00072  -0.00002   0.00000  -0.00072  -0.00072   0.00000
   D13        0.00060  -0.00001   0.00000  -0.00062  -0.00062  -0.00003
   D14       -3.14153   0.00000   0.00000  -0.00013  -0.00013   3.14153
   D15       -3.14132  -0.00001   0.00000  -0.00023  -0.00023  -3.14155
   D16       -0.00026   0.00001   0.00000   0.00026   0.00026   0.00000
   D17        0.00023  -0.00001   0.00000  -0.00032  -0.00032  -0.00010
   D18       -3.14158   0.00000   0.00000   0.00007   0.00007  -3.14151
   D19       -3.14083  -0.00002   0.00000  -0.00082  -0.00082   3.14154
   D20        0.00054  -0.00001   0.00000  -0.00042  -0.00042   0.00012
   D21       -0.00066   0.00002   0.00000   0.00080   0.00080   0.00014
   D22        3.14138   0.00001   0.00000   0.00024   0.00025  -3.14156
   D23        3.14116   0.00001   0.00000   0.00041   0.00040   3.14156
   D24        0.00001   0.00000   0.00000  -0.00015  -0.00015  -0.00014
         Item               Value     Threshold  Converged?
 Maximum Force            0.011858     0.000450     NO 
 RMS     Force            0.003298     0.000300     NO 
 Maximum Displacement     0.068233     0.001800     NO 
 RMS     Displacement     0.012343     0.001200     NO 
 Predicted change in Energy=-1.189808D-03
 Lowest energy point so far.  Saving SCF results.
 GradGradGradGradGradGradGradGradGradGradGradGradGradGradGradGradGradGrad

 Leave Link  103 at Tue Jan 29 13:52:53 2019, MaxMem=   939524096 cpu:         0.0
 (Enter /usr/local/gaussian09/g09/l202.exe)
                          Input orientation:                          
 ---------------------------------------------------------------------
 Center     Atomic      Atomic             Coordinates (Angstroms)
 Number     Number       Type             X           Y           Z
 ---------------------------------------------------------------------
      1          6           0       -1.755976   -1.846546    0.001250
      2          6           0       -0.359743   -1.852510    0.001786
      3          6           0        0.333155   -0.639613    0.001192
      4          6           0       -0.359714    0.573575    0.000194
      5          6           0       -1.755738    0.567675   -0.000244
      6          6           0       -2.456543   -0.639470    0.000195
      7          1           0       -2.293910   -2.789969    0.001598
      8          1           0        0.180055   -2.793695    0.002621
      9          1           0        0.180466    1.514525   -0.000204
     10          1           0       -2.293766    1.511047   -0.001094
     11          1           0       -3.542775   -0.639303   -0.000182
     12         53           0        2.477224   -0.639443    0.001942
 ---------------------------------------------------------------------
                    Distance matrix (angstroms):
                    1          2          3          4          5
     1  C    0.000000
     2  C    1.396246   0.000000
     3  C    2.412707   1.396863   0.000000
     4  C    2.794017   2.426085   1.397101   0.000000
     5  C    2.414221   2.793940   2.412679   1.396037   0.000000
     6  C    1.395646   2.422404   2.789698   2.422430   1.395825
     7  H    1.086011   2.149379   3.394923   3.880018   3.400501
     8  H    2.155298   1.084994   2.159517   3.410258   3.878932
     9  H    3.878995   3.410095   2.159542   1.084980   2.155321
    10  H    3.400390   3.879944   3.395004   2.149282   1.086013
    11  H    2.156406   3.406401   3.875930   3.406310   2.156455
    12  I    4.401941   3.085436   2.144070   3.085390   4.401717
                    6          7          8          9         10
     6  C    0.000000
     7  H    2.156640   0.000000
     8  H    3.404753   2.473968   0.000000
     9  H    3.404924   4.964998   4.308220   0.000000
    10  H    2.156668   4.301016   4.964938   2.474235   0.000000
    11  H    1.086232   2.486972   4.301265   4.301336   2.486770
    12  I    4.933768   5.233401   3.149252   3.148758   5.233256
                   11         12
    11  H    0.000000
    12  I    6.020000   0.000000
 Symmetry turned off by external request.
 Stoichiometry    C6H5I
 Framework group  C1[X(C6H5I)]
 Deg. of freedom    30
 Full point group                 C1      NOp   1
 Rotational constants (GHZ):      5.6809133      0.7293715      0.6463825
 Leave Link  202 at Tue Jan 29 13:52:53 2019, MaxMem=   939524096 cpu:         0.0
 (Enter /usr/local/gaussian09/g09/l301.exe)
 Basis read from rwf:  (5D, 7F)
 Pseudo-potential data read from rwf file.
   102 basis functions,   200 primitive gaussians,   108 cartesian basis functions
    24 alpha electrons       24 beta electrons
       nuclear repulsion energy       237.6839653948 Hartrees.
 IExCor=  402 DFT=T Ex+Corr=B3LYP ExCW=0 ScaHFX=  0.200000
 ScaDFX=  0.800000  0.720000  1.000000  0.810000 ScalE2=  1.000000  1.000000
 IRadAn=      0 IRanWt=     -1 IRanGd=            0 ICorTp=0 IEmpDi=  4
 NAtoms=   12 NActive=   12 NUniq=   12 SFac= 1.00D+00 NAtFMM=   60 NAOKFM=F Big=F
 Integral buffers will be    131072 words long.
 Raffenetti 2 integral format.
 Two-electron integral symmetry is turned off.
 No density basis found on file   724.
 Leave Link  301 at Tue Jan 29 13:52:53 2019, MaxMem=   939524096 cpu:         0.4
 (Enter /usr/local/gaussian09/g09/l302.exe)
 NPDir=0 NMtPBC=     1 NCelOv=     1 NCel=       1 NClECP=     1 NCelD=      1
         NCelK=      1 NCelE2=     1 NClLst=     1 CellRange=     0.0.
 One-electron integrals computed using PRISM.
   1 Symmetry operations used in ECPInt.
 ECPInt:  NShTT=     741 NPrTT=    4403 LenC2=     742 LenP2D=    3449.
 LDataN:  DoStor=T MaxTD1= 5 Len=  102
 NBasis=   102 RedAO= T EigKep=  5.43D-04  NBF=   102
 NBsUse=   102 1.00D-06 EigRej= -1.00D+00 NBFU=   102
 Precomputing XC quadrature grid using
 IXCGrd= 4 IRadAn=           0 IRanWt=          -1 IRanGd=           0 AccXCQ= 0.00D+00.
 Defaulting to unpruned grid for atomic number  53.
 Generated NRdTot=       0 NPtTot=           0 NUsed=           0 NTot=          32
 NSgBfM=   108   108   108   108   108 MxSgAt=    12 MxSgA2=    12.
 Leave Link  302 at Tue Jan 29 13:52:53 2019, MaxMem=   939524096 cpu:         1.3
 (Enter /usr/local/gaussian09/g09/l303.exe)
 DipDrv:  MaxL=1.
 Leave Link  303 at Tue Jan 29 13:52:53 2019, MaxMem=   939524096 cpu:         0.3
 (Enter /usr/local/gaussian09/g09/l401.exe)
 Initial guess from the checkpoint file:  "Phenyl-Iodide2.chk"
 B after Tr=     0.034611    0.000103   -0.000234
         Rot=    1.000000    0.000012   -0.000062   -0.000015 Ang=   0.01 deg.
 Guess basis will be translated and rotated to current coordinates.
 JPrj=2 DoOrth=T DoCkMO=T.
 Generating alternative initial guess.
 ExpMin= 1.05D-01 ExpMax= 3.05D+03 ExpMxC= 4.57D+02 IAcc=1 IRadAn=         1 AccDes= 0.00D+00
 Harris functional with IExCor=  402 and IRadAn=       1 diagonalized for initial guess.
 HarFok:  IExCor=  402 AccDes= 0.00D+00 IRadAn=         1 IDoV= 1 UseB2=F ITyADJ=14
 ICtDFT=  3500011 ScaDFX=  1.000000  1.000000  1.000000  1.000000
 Defaulting to unpruned grid for atomic number  53.
 Defaulting to unpruned grid for atomic number  53.
 Defaulting to unpruned grid for atomic number  53.
 Defaulting to unpruned grid for atomic number  53.
 FoFCou: FMM=F IPFlag=           0 FMFlag=      100000 FMFlg1=           0
         NFxFlg=           0 DoJE=T BraDBF=F KetDBF=T FulRan=T
         wScrn=  0.000000 ICntrl=     500 IOpCl=  0 I1Cent=   200000004 NGrid=           0
         NMat0=    1 NMatS0=      1 NMatT0=    0 NMatD0=    1 NMtDS0=    0 NMtDT0=    0
 Symmetry not used in FoFCou.
 Harris En= -242.965754204434    
 Leave Link  401 at Tue Jan 29 13:52:54 2019, MaxMem=   939524096 cpu:         2.6
 (Enter /usr/local/gaussian09/g09/l502.exe)
 Closed shell SCF:
 Using DIIS extrapolation, IDIIS=  1040.
 Two-electron integral symmetry not used.
 Keep R1 ints in memory in canonical form, NReq=14785935.
 IVT=       54862 IEndB=       54862 NGot=   939524096 MDV=   925669604
 LenX=   925669604 LenY=   925657499
 Requested convergence on RMS density matrix=1.00D-08 within 128 cycles.
 Requested convergence on MAX density matrix=1.00D-06.
 Requested convergence on             energy=1.00D-06.
 No special actions if energy rises.
 FoFCou: FMM=F IPFlag=           0 FMFlag=           0 FMFlg1=           0
         NFxFlg=           0 DoJE=F BraDBF=F KetDBF=F FulRan=T
         wScrn=  0.000000 ICntrl=     600 IOpCl=  0 I1Cent=           0 NGrid=           0
         NMat0=    1 NMatS0=   5253 NMatT0=    0 NMatD0=    1 NMtDS0=    0 NMtDT0=    0
 Symmetry not used in FoFCou.
 Integral accuracy reduced to 1.0D-05 until final iterations.

 Cycle   1  Pass 0  IDiag  1:
 Defaulting to unpruned grid for atomic number  53.
 Defaulting to unpruned grid for atomic number  53.
 Defaulting to unpruned grid for atomic number  53.
 Defaulting to unpruned grid for atomic number  53.
 E= -243.021097276667    
 DIIS: error= 3.55D-03 at cycle   1 NSaved=   1.
 NSaved= 1 IEnMin= 1 EnMin= -243.021097276667     IErMin= 1 ErrMin= 3.55D-03
 ErrMax= 3.55D-03  0.00D+00 EMaxC= 1.00D-01 BMatC= 7.28D-04 BMatP= 7.28D-04
 IDIUse=3 WtCom= 9.65D-01 WtEn= 3.55D-02
 Coeff-Com:  0.100D+01
 Coeff-En:   0.100D+01
 Coeff:      0.100D+01
 Gap=     0.786 Goal=   None    Shift=    0.000
 GapD=    0.786 DampG=2.000 DampE=1.000 DampFc=2.0000 IDamp=-1.
 RMSDP=4.43D-04 MaxDP=8.15D-03              OVMax= 1.33D-02

 Cycle   2  Pass 0  IDiag  1:
 E= -243.021335124274     Delta-E=       -0.000237847606 Rises=F Damp=F
 DIIS: error= 1.74D-03 at cycle   2 NSaved=   2.
 NSaved= 2 IEnMin= 2 EnMin= -243.021335124274     IErMin= 2 ErrMin= 1.74D-03
 ErrMax= 1.74D-03  0.00D+00 EMaxC= 1.00D-01 BMatC= 2.73D-04 BMatP= 7.28D-04
 IDIUse=3 WtCom= 9.83D-01 WtEn= 1.74D-02
 Coeff-Com:  0.320D+00 0.680D+00
 Coeff-En:   0.232D+00 0.768D+00
 Coeff:      0.319D+00 0.681D+00
 Gap=     0.204 Goal=   None    Shift=    0.000
 RMSDP=3.44D-04 MaxDP=8.43D-03 DE=-2.38D-04 OVMax= 9.84D-03

 Cycle   3  Pass 0  IDiag  1:
 E= -243.021309255445     Delta-E=        0.000025868828 Rises=F Damp=F
 DIIS: error= 1.76D-03 at cycle   3 NSaved=   3.
 NSaved= 3 IEnMin= 2 EnMin= -243.021335124274     IErMin= 2 ErrMin= 1.74D-03
 ErrMax= 1.76D-03  0.00D+00 EMaxC= 1.00D-01 BMatC= 2.86D-04 BMatP= 2.73D-04
 IDIUse=3 WtCom= 9.82D-01 WtEn= 1.76D-02
 Coeff-Com:  0.995D-02 0.504D+00 0.487D+00
 Coeff-En:   0.000D+00 0.516D+00 0.484D+00
 Coeff:      0.978D-02 0.504D+00 0.486D+00
 Gap=     0.206 Goal=   None    Shift=    0.000
 RMSDP=1.99D-04 MaxDP=4.37D-03 DE= 2.59D-05 OVMax= 5.81D-03

 Cycle   4  Pass 0  IDiag  1:
 E= -243.021622718388     Delta-E=       -0.000313462943 Rises=F Damp=F
 DIIS: error= 3.84D-04 at cycle   4 NSaved=   4.
 NSaved= 4 IEnMin= 4 EnMin= -243.021622718388     IErMin= 4 ErrMin= 3.84D-04
 ErrMax= 3.84D-04  0.00D+00 EMaxC= 1.00D-01 BMatC= 6.87D-06 BMatP= 2.73D-04
 IDIUse=3 WtCom= 9.96D-01 WtEn= 3.84D-03
 Coeff-Com: -0.159D-02 0.274D+00 0.286D+00 0.441D+00
 Coeff-En:   0.000D+00 0.000D+00 0.000D+00 0.100D+01
 Coeff:     -0.158D-02 0.273D+00 0.285D+00 0.444D+00
 Gap=     0.206 Goal=   None    Shift=    0.000
 RMSDP=2.96D-05 MaxDP=5.27D-04 DE=-3.13D-04 OVMax= 1.59D-03

 Cycle   5  Pass 0  IDiag  1:
 E= -243.021630442531     Delta-E=       -0.000007724143 Rises=F Damp=F
 DIIS: error= 4.66D-05 at cycle   5 NSaved=   5.
 NSaved= 5 IEnMin= 5 EnMin= -243.021630442531     IErMin= 5 ErrMin= 4.66D-05
 ErrMax= 4.66D-05  0.00D+00 EMaxC= 1.00D-01 BMatC= 2.50D-07 BMatP= 6.87D-06
 IDIUse=1 WtCom= 1.00D+00 WtEn= 0.00D+00
 Coeff-Com: -0.183D-02 0.548D-01 0.650D-01 0.195D+00 0.687D+00
 Coeff:     -0.183D-02 0.548D-01 0.650D-01 0.195D+00 0.687D+00
 Gap=     0.206 Goal=   None    Shift=    0.000
 RMSDP=5.05D-06 MaxDP=8.17D-05 DE=-7.72D-06 OVMax= 1.94D-04

 Initial convergence to 1.0D-05 achieved.  Increase integral accuracy.
 Cycle   6  Pass 1  IDiag  1:
 E= -243.021430963014     Delta-E=        0.000199479517 Rises=F Damp=F
 DIIS: error= 8.93D-05 at cycle   1 NSaved=   1.
 NSaved= 1 IEnMin= 1 EnMin= -243.021430963014     IErMin= 1 ErrMin= 8.93D-05
 ErrMax= 8.93D-05  0.00D+00 EMaxC= 1.00D-01 BMatC= 1.51D-07 BMatP= 1.51D-07
 IDIUse=1 WtCom= 1.00D+00 WtEn= 0.00D+00
 Coeff-Com:  0.100D+01
 Coeff:      0.100D+01
 Gap=     0.206 Goal=   None    Shift=    0.000
 RMSDP=5.05D-06 MaxDP=8.17D-05 DE= 1.99D-04 OVMax= 4.04D-04

 Cycle   7  Pass 1  IDiag  1:
 E= -243.021431246014     Delta-E=       -0.000000283001 Rises=F Damp=F
 DIIS: error= 2.14D-05 at cycle   2 NSaved=   2.
 NSaved= 2 IEnMin= 2 EnMin= -243.021431246014     IErMin= 2 ErrMin= 2.14D-05
 ErrMax= 2.14D-05  0.00D+00 EMaxC= 1.00D-01 BMatC= 1.34D-08 BMatP= 1.51D-07
 IDIUse=1 WtCom= 1.00D+00 WtEn= 0.00D+00
 Coeff-Com:  0.157D+00 0.843D+00
 Coeff:      0.157D+00 0.843D+00
 Gap=     0.206 Goal=   None    Shift=    0.000
 RMSDP=3.23D-06 MaxDP=1.02D-04 DE=-2.83D-07 OVMax= 8.31D-05

 Cycle   8  Pass 1  IDiag  1:
 E= -243.021431264102     Delta-E=       -0.000000018087 Rises=F Damp=F
 DIIS: error= 6.76D-06 at cycle   3 NSaved=   3.
 NSaved= 3 IEnMin= 3 EnMin= -243.021431264102     IErMin= 3 ErrMin= 6.76D-06
 ErrMax= 6.76D-06  0.00D+00 EMaxC= 1.00D-01 BMatC= 4.28D-09 BMatP= 1.34D-08
 IDIUse=1 WtCom= 1.00D+00 WtEn= 0.00D+00
 Coeff-Com:  0.102D-01 0.350D+00 0.640D+00
 Coeff:      0.102D-01 0.350D+00 0.640D+00
 Gap=     0.206 Goal=   None    Shift=    0.000
 RMSDP=1.03D-06 MaxDP=2.28D-05 DE=-1.81D-08 OVMax= 3.75D-05

 Cycle   9  Pass 1  IDiag  1:
 E= -243.021431267183     Delta-E=       -0.000000003081 Rises=F Damp=F
 DIIS: error= 5.51D-06 at cycle   4 NSaved=   4.
 NSaved= 4 IEnMin= 4 EnMin= -243.021431267183     IErMin= 4 ErrMin= 5.51D-06
 ErrMax= 5.51D-06  0.00D+00 EMaxC= 1.00D-01 BMatC= 1.91D-09 BMatP= 4.28D-09
 IDIUse=1 WtCom= 1.00D+00 WtEn= 0.00D+00
 Coeff-Com: -0.881D-02 0.148D+00 0.433D+00 0.427D+00
 Coeff:     -0.881D-02 0.148D+00 0.433D+00 0.427D+00
 Gap=     0.206 Goal=   None    Shift=    0.000
 RMSDP=5.93D-07 MaxDP=9.64D-06 DE=-3.08D-09 OVMax= 1.99D-05

 Cycle  10  Pass 1  IDiag  1:
 E= -243.021431269414     Delta-E=       -0.000000002231 Rises=F Damp=F
 DIIS: error= 8.50D-07 at cycle   5 NSaved=   5.
 NSaved= 5 IEnMin= 5 EnMin= -243.021431269414     IErMin= 5 ErrMin= 8.50D-07
 ErrMax= 8.50D-07  0.00D+00 EMaxC= 1.00D-01 BMatC= 5.18D-11 BMatP= 1.91D-09
 IDIUse=1 WtCom= 1.00D+00 WtEn= 0.00D+00
 Coeff-Com: -0.507D-02 0.565D-01 0.182D+00 0.223D+00 0.543D+00
 Coeff:     -0.507D-02 0.565D-01 0.182D+00 0.223D+00 0.543D+00
 Gap=     0.206 Goal=   None    Shift=    0.000
 RMSDP=8.32D-08 MaxDP=1.49D-06 DE=-2.23D-09 OVMax= 3.79D-06

 Cycle  11  Pass 1  IDiag  1:
 E= -243.021431269464     Delta-E=       -0.000000000051 Rises=F Damp=F
 DIIS: error= 2.10D-07 at cycle   6 NSaved=   6.
 NSaved= 6 IEnMin= 6 EnMin= -243.021431269464     IErMin= 6 ErrMin= 2.10D-07
 ErrMax= 2.10D-07  0.00D+00 EMaxC= 1.00D-01 BMatC= 5.62D-12 BMatP= 5.18D-11
 IDIUse=1 WtCom= 1.00D+00 WtEn= 0.00D+00
 Coeff-Com: -0.127D-02 0.867D-02 0.332D-01 0.581D-01 0.287D+00 0.615D+00
 Coeff:     -0.127D-02 0.867D-02 0.332D-01 0.581D-01 0.287D+00 0.615D+00
 Gap=     0.206 Goal=   None    Shift=    0.000
 RMSDP=3.08D-08 MaxDP=5.31D-07 DE=-5.06D-11 OVMax= 6.92D-07

 Cycle  12  Pass 1  IDiag  1:
 E= -243.021431269468     Delta-E=       -0.000000000004 Rises=F Damp=F
 DIIS: error= 2.80D-08 at cycle   7 NSaved=   7.
 NSaved= 7 IEnMin= 7 EnMin= -243.021431269468     IErMin= 7 ErrMin= 2.80D-08
 ErrMax= 2.80D-08  0.00D+00 EMaxC= 1.00D-01 BMatC= 8.17D-14 BMatP= 5.62D-12
 IDIUse=1 WtCom= 1.00D+00 WtEn= 0.00D+00
 Coeff-Com: -0.139D-03-0.104D-03 0.123D-02 0.493D-02 0.497D-01 0.171D+00
 Coeff-Com:  0.774D+00
 Coeff:     -0.139D-03-0.104D-03 0.123D-02 0.493D-02 0.497D-01 0.171D+00
 Coeff:      0.774D+00
 Gap=     0.206 Goal=   None    Shift=    0.000
 RMSDP=6.02D-09 MaxDP=7.93D-08 DE=-4.26D-12 OVMax= 1.48D-07

 SCF Done:  E(RB3LYP) =  -243.021431269     A.U. after   12 cycles
            NFock= 12  Conv=0.60D-08     -V/T= 2.0420
 KE= 2.332215012919D+02 PE=-1.033418249226D+03 EE= 3.194913512700D+02
 Leave Link  502 at Tue Jan 29 13:53:00 2019, MaxMem=   939524096 cpu:        23.1
 (Enter /usr/local/gaussian09/g09/l701.exe)
 Compute integral first derivatives.
 ... and contract with generalized density number  0.
   1 Symmetry operations used in ECPInt.
 ECPInt:  NShTT=     741 NPrTT=    4403 LenC2=     742 LenP2D=    3449.
 LDataN:  DoStor=T MaxTD1= 6 Len=  172
 Leave Link  701 at Tue Jan 29 13:53:01 2019, MaxMem=   939524096 cpu:         1.4
 (Enter /usr/local/gaussian09/g09/l702.exe)
 L702 exits ... SP integral derivatives will be done elsewhere.
 Leave Link  702 at Tue Jan 29 13:53:01 2019, MaxMem=   939524096 cpu:         0.2
 (Enter /usr/local/gaussian09/g09/l703.exe)
 Compute integral first derivatives, UseDBF=F ICtDFT=           0.
 Integral derivatives from FoFJK, PRISM(SPDF).
 Calling FoFJK, ICntrl=      2127 FMM=F ISym2X=0 I1Cent= 0 IOpClX= 0 NMat=1 NMatS=1 NMatT=0.
 FoFJK:  IHMeth= 1 ICntrl=    2127 DoSepK=F KAlg= 0 I1Cent=   0 FoldK=F
 IRaf=         0 NMat=   1 IRICut=       1 DoRegI=T DoRafI=F ISym2E= 0.
 FoFCou: FMM=F IPFlag=           0 FMFlag=      100000 FMFlg1=         800
         NFxFlg=           0 DoJE=F BraDBF=F KetDBF=F FulRan=T
         wScrn=  0.000000 ICntrl=    2127 IOpCl=  0 I1Cent=           0 NGrid=           0
         NMat0=    1 NMatS0=      1 NMatT0=    0 NMatD0=    1 NMtDS0=    0 NMtDT0=    0
 Symmetry not used in FoFCou.
 Defaulting to unpruned grid for atomic number  53.
 Defaulting to unpruned grid for atomic number  53.
 Defaulting to unpruned grid for atomic number  53.
 Defaulting to unpruned grid for atomic number  53.
 Leave Link  703 at Tue Jan 29 13:53:03 2019, MaxMem=   939524096 cpu:         9.2
 (Enter /usr/local/gaussian09/g09/l716.exe)
 Dipole        =-7.14851774D-01-2.17644950D-05-2.52422408D-04
 -------------------------------------------------------------------
 Center     Atomic                   Forces (Hartrees/Bohr)
 Number     Number              X              Y              Z
 -------------------------------------------------------------------
      1        6          -0.000565375    0.001483625   -0.000006150
      2        6           0.003687855   -0.000709785   -0.000003078
      3        6          -0.005980721    0.000108127    0.000004343
      4        6           0.003852375    0.000567069    0.000005255
      5        6          -0.000719550   -0.001533861   -0.000014173
      6        6          -0.000127496    0.000071661    0.000010811
      7        1           0.000073321   -0.000522905    0.000003608
      8        1          -0.000084290   -0.000004399   -0.000001236
      9        1          -0.000105318    0.000025170   -0.000001339
     10        1           0.000082392    0.000529010    0.000003953
     11        1          -0.000075450   -0.000005563   -0.000002307
     12       53          -0.000037743   -0.000008149    0.000000311
 -------------------------------------------------------------------
 Cartesian Forces:  Max     0.005980721 RMS     0.001404870
 Leave Link  716 at Tue Jan 29 13:53:03 2019, MaxMem=   939524096 cpu:         0.2
 (Enter /usr/local/gaussian09/g09/l103.exe)

 GradGradGradGradGradGradGradGradGradGradGradGradGradGradGradGradGradGrad
 Berny optimization.
 Using GEDIIS/GDIIS optimizer.
 FormGI is forming the generalized inverse of G from B-inverse, IUseBI=4.
 Internal  Forces:  Max     0.002744701 RMS     0.000697408
 Search for a local minimum.
 Step number   2 out of a maximum of   64
 All quantities printed in internal units (Hartrees-Bohrs-Radians)
 RMS Force = .69741D-03 SwitMx=.10000D-02 MixMth= 2
 Mixed Optimization -- En-DIIS/RFO-DIIS
 Update second derivatives using D2CorX and points    1    2
 DE= -1.20D-03 DEPred=-1.19D-03 R= 1.01D+00
 TightC=F SS=  1.41D+00  RLast= 1.06D-01 DXNew= 5.0454D-01 3.1782D-01
 Trust test= 1.01D+00 RLast= 1.06D-01 DXMaxT set to 3.18D-01
 ITU=  1  0
 Use linear search instead of GDIIS.
     Eigenvalues ---    0.02152   0.02153   0.02154   0.02155   0.02155
     Eigenvalues ---    0.02155   0.02155   0.02156   0.02157   0.13695
     Eigenvalues ---    0.15925   0.16000   0.16000   0.16000   0.16002
     Eigenvalues ---    0.21373   0.22000   0.22739   0.25000   0.33629
     Eigenvalues ---    0.33717   0.33719   0.33725   0.35116   0.42133
     Eigenvalues ---    0.43069   0.46401   0.46449   0.46464   0.47404
 RFO step:  Lambda=-9.84732132D-05 EMin= 2.15189551D-02
 Quartic linear search produced a step of  0.02541.
 Iteration  1 RMS(Cart)=  0.00264471 RMS(Int)=  0.00000908
 Iteration  2 RMS(Cart)=  0.00001272 RMS(Int)=  0.00000341
 Iteration  3 RMS(Cart)=  0.00000000 RMS(Int)=  0.00000341
 ITry= 1 IFail=0 DXMaxC= 1.29D-02 DCOld= 1.00D+10 DXMaxT= 3.18D-01 DXLimC= 3.00D+00 Rises=F
 Variable       Old X    -DE/DX   Delta X   Delta X   Delta X     New X
                                 (Linear)    (Quad)   (Total)
    R1        2.63852   0.00062   0.00005   0.00141   0.00146   2.63998
    R2        2.63739   0.00013   0.00004   0.00043   0.00046   2.63785
    R3        2.05226   0.00042  -0.00065   0.00085   0.00019   2.05246
    R4        2.63969  -0.00176   0.00010  -0.00393  -0.00382   2.63587
    R5        2.05034  -0.00004  -0.00070  -0.00057  -0.00128   2.04906
    R6        2.64014  -0.00187   0.00008  -0.00420  -0.00411   2.63602
    R7        4.05170  -0.00004   0.00212   0.00111   0.00323   4.05493
    R8        2.63813   0.00072   0.00006   0.00162   0.00168   2.63981
    R9        2.05031  -0.00003  -0.00071  -0.00055  -0.00126   2.04906
   R10        2.63773   0.00005   0.00003   0.00024   0.00027   2.63800
   R11        2.05227   0.00042  -0.00066   0.00084   0.00018   2.05245
   R12        2.05268   0.00008  -0.00064  -0.00019  -0.00083   2.05185
    A1        2.10094   0.00018   0.00017   0.00145   0.00161   2.10255
    A2        2.08474  -0.00042  -0.00024  -0.00295  -0.00319   2.08155
    A3        2.09751   0.00024   0.00008   0.00150   0.00158   2.09909
    A4        2.08555  -0.00147  -0.00023  -0.00700  -0.00722   2.07833
    A5        2.09580   0.00066   0.00004   0.00296   0.00300   2.09880
    A6        2.10183   0.00081   0.00018   0.00404   0.00422   2.10605
    A7        2.10365   0.00274   0.00024   0.01121   0.01146   2.11511
    A8        2.08991  -0.00139  -0.00012  -0.00567  -0.00580   2.08411
    A9        2.08963  -0.00136  -0.00012  -0.00554  -0.00566   2.08397
   A10        2.08548  -0.00146  -0.00022  -0.00693  -0.00715   2.07833
   A11        2.10154   0.00084   0.00019   0.00420   0.00438   2.10593
   A12        2.09616   0.00062   0.00003   0.00273   0.00276   2.09893
   A13        2.10102   0.00017   0.00017   0.00138   0.00154   2.10256
   A14        2.08488  -0.00043  -0.00025  -0.00299  -0.00323   2.08165
   A15        2.09729   0.00026   0.00008   0.00161   0.00169   2.09898
   A16        2.08973  -0.00016  -0.00012  -0.00011  -0.00024   2.08949
   A17        2.09682   0.00008   0.00006   0.00002   0.00008   2.09690
   A18        2.09664   0.00009   0.00006   0.00009   0.00016   2.09679
    D1       -0.00005   0.00000  -0.00002   0.00006   0.00005  -0.00001
    D2        3.14158   0.00000   0.00002   0.00001   0.00003  -3.14158
    D3        3.14147   0.00000  -0.00002   0.00014   0.00012   3.14159
    D4       -0.00008   0.00000   0.00002   0.00008   0.00010   0.00002
    D5       -0.00007   0.00000  -0.00001   0.00009   0.00008   0.00001
    D6       -3.14155   0.00000   0.00001  -0.00002  -0.00001  -3.14157
    D7        3.14159   0.00000  -0.00001   0.00001   0.00000  -3.14159
    D8        0.00011   0.00000   0.00001  -0.00009  -0.00009   0.00002
    D9        0.00010   0.00000   0.00003  -0.00012  -0.00009   0.00001
   D10       -3.14156   0.00000   0.00002  -0.00005  -0.00003  -3.14159
   D11       -3.14153   0.00000  -0.00001  -0.00006  -0.00007   3.14158
   D12        0.00000   0.00000  -0.00002   0.00000  -0.00001  -0.00002
   D13       -0.00003   0.00000  -0.00002   0.00003   0.00001  -0.00001
   D14        3.14153   0.00000   0.00000   0.00008   0.00007  -3.14158
   D15       -3.14155   0.00000  -0.00001  -0.00004  -0.00004   3.14159
   D16        0.00000   0.00000   0.00001   0.00001   0.00002   0.00002
   D17       -0.00010   0.00000  -0.00001   0.00012   0.00011   0.00002
   D18       -3.14151   0.00000   0.00000  -0.00008  -0.00008   3.14159
   D19        3.14154   0.00000  -0.00002   0.00007   0.00005   3.14159
   D20        0.00012   0.00000  -0.00001  -0.00013  -0.00014  -0.00002
   D21        0.00014   0.00000   0.00002  -0.00018  -0.00016  -0.00001
   D22       -3.14156   0.00000   0.00001  -0.00007  -0.00006   3.14157
   D23        3.14156   0.00000   0.00001   0.00003   0.00004  -3.14159
   D24       -0.00014   0.00000   0.00000   0.00013   0.00013  -0.00001
         Item               Value     Threshold  Converged?
 Maximum Force            0.002745     0.000450     NO 
 RMS     Force            0.000697     0.000300     NO 
 Maximum Displacement     0.012895     0.001800     NO 
 RMS     Displacement     0.002646     0.001200     NO 
 Predicted change in Energy=-4.992806D-05
 Lowest energy point so far.  Saving SCF results.
 GradGradGradGradGradGradGradGradGradGradGradGradGradGradGradGradGradGrad

 Leave Link  103 at Tue Jan 29 13:53:03 2019, MaxMem=   939524096 cpu:         0.0
 (Enter /usr/local/gaussian09/g09/l202.exe)
                          Input orientation:                          
 ---------------------------------------------------------------------
 Center     Atomic      Atomic             Coordinates (Angstroms)
 Number     Number       Type             X           Y           Z
 ---------------------------------------------------------------------
      1          6           0       -1.755593   -1.846630    0.001242
      2          6           0       -0.358598   -1.854663    0.001755
      3          6           0        0.326331   -0.639571    0.001221
      4          6           0       -0.358523    0.575661    0.000200
      5          6           0       -1.755428    0.567757   -0.000307
      6          6           0       -2.456437   -0.639434    0.000219
      7          1           0       -2.291962   -2.791061    0.001655
      8          1           0        0.182294   -2.794441    0.002540
      9          1           0        0.182577    1.515314   -0.000217
     10          1           0       -2.291803    1.512182   -0.001100
     11          1           0       -3.542230   -0.639319   -0.000153
     12         53           0        2.472108   -0.639522    0.001999
 ---------------------------------------------------------------------
                    Distance matrix (angstroms):
                    1          2          3          4          5
     1  C    0.000000
     2  C    1.397018   0.000000
     3  C    2.406533   1.394840   0.000000
     4  C    2.796301   2.430325   1.394924   0.000000
     5  C    2.414388   2.796294   2.406525   1.396927   0.000000
     6  C    1.395889   2.424400   2.782768   2.424397   1.395968
     7  H    1.086113   2.148194   3.388860   3.882397   3.401402
     8  H    2.157256   1.084318   2.159679   3.413220   3.880612
     9  H    3.880615   3.413154   2.159675   1.084314   2.157250
    10  H    3.401345   3.882388   3.388904   2.148172   1.086111
    11  H    2.156311   3.407723   3.868562   3.407663   2.156316
    12  I    4.396654   3.080498   2.145777   3.080445   4.396542
                    6          7          8          9         10
     6  C    0.000000
     7  H    2.157905   0.000000
     8  H    3.406899   2.474258   0.000000
     9  H    3.406954   4.966711   4.309756   0.000000
    10  H    2.157906   4.303244   4.966706   2.474382   0.000000
    11  H    1.085793   2.488608   4.303096   4.303096   2.488479
    12  I    4.928545   5.227378   3.144348   3.144086   5.227302
                   11         12
    11  H    0.000000
    12  I    6.014338   0.000000
 Symmetry turned off by external request.
 Stoichiometry    C6H5I
 Framework group  C1[X(C6H5I)]
 Deg. of freedom    30
 Full point group                 C1      NOp   1
 Rotational constants (GHZ):      5.6716885      0.7312708      0.6477536
 Leave Link  202 at Tue Jan 29 13:53:03 2019, MaxMem=   939524096 cpu:         0.0
 (Enter /usr/local/gaussian09/g09/l301.exe)
 Basis read from rwf:  (5D, 7F)
 Pseudo-potential data read from rwf file.
   102 basis functions,   200 primitive gaussians,   108 cartesian basis functions
    24 alpha electrons       24 beta electrons
       nuclear repulsion energy       237.7615071432 Hartrees.
 IExCor=  402 DFT=T Ex+Corr=B3LYP ExCW=0 ScaHFX=  0.200000
 ScaDFX=  0.800000  0.720000  1.000000  0.810000 ScalE2=  1.000000  1.000000
 IRadAn=      0 IRanWt=     -1 IRanGd=            0 ICorTp=0 IEmpDi=  4
 NAtoms=   12 NActive=   12 NUniq=   12 SFac= 1.00D+00 NAtFMM=   60 NAOKFM=F Big=F
 Integral buffers will be    131072 words long.
 Raffenetti 2 integral format.
 Two-electron integral symmetry is turned off.
 No density basis found on file   724.
 Leave Link  301 at Tue Jan 29 13:53:03 2019, MaxMem=   939524096 cpu:         0.4
 (Enter /usr/local/gaussian09/g09/l302.exe)
 NPDir=0 NMtPBC=     1 NCelOv=     1 NCel=       1 NClECP=     1 NCelD=      1
         NCelK=      1 NCelE2=     1 NClLst=     1 CellRange=     0.0.
 One-electron integrals computed using PRISM.
   1 Symmetry operations used in ECPInt.
 ECPInt:  NShTT=     741 NPrTT=    4403 LenC2=     742 LenP2D=    3449.
 LDataN:  DoStor=T MaxTD1= 5 Len=  102
 NBasis=   102 RedAO= T EigKep=  5.41D-04  NBF=   102
 NBsUse=   102 1.00D-06 EigRej= -1.00D+00 NBFU=   102
 Precomputing XC quadrature grid using
 IXCGrd= 4 IRadAn=           0 IRanWt=          -1 IRanGd=           0 AccXCQ= 0.00D+00.
 Defaulting to unpruned grid for atomic number  53.
 Generated NRdTot=       0 NPtTot=           0 NUsed=           0 NTot=          32
 NSgBfM=   108   108   108   108   108 MxSgAt=    12 MxSgA2=    12.
 Leave Link  302 at Tue Jan 29 13:53:04 2019, MaxMem=   939524096 cpu:         1.4
 (Enter /usr/local/gaussian09/g09/l303.exe)
 DipDrv:  MaxL=1.
 Leave Link  303 at Tue Jan 29 13:53:04 2019, MaxMem=   939524096 cpu:         0.2
 (Enter /usr/local/gaussian09/g09/l401.exe)
 Initial guess from the checkpoint file:  "Phenyl-Iodide2.chk"
 B after Tr=    -0.005700   -0.000054    0.000027
         Rot=    1.000000    0.000001    0.000008    0.000008 Ang=   0.00 deg.
 Guess basis will be translated and rotated to current coordinates.
 JPrj=2 DoOrth=T DoCkMO=T.
 Leave Link  401 at Tue Jan 29 13:53:04 2019, MaxMem=   939524096 cpu:         0.8
 (Enter /usr/local/gaussian09/g09/l502.exe)
 Closed shell SCF:
 Using DIIS extrapolation, IDIIS=  1040.
 Two-electron integral symmetry not used.
 Keep R1 ints in memory in canonical form, NReq=14785935.
 IVT=       54862 IEndB=       54862 NGot=   939524096 MDV=   925669604
 LenX=   925669604 LenY=   925657499
 Requested convergence on RMS density matrix=1.00D-08 within 128 cycles.
 Requested convergence on MAX density matrix=1.00D-06.
 Requested convergence on             energy=1.00D-06.
 No special actions if energy rises.
 FoFCou: FMM=F IPFlag=           0 FMFlag=           0 FMFlg1=           0
         NFxFlg=           0 DoJE=F BraDBF=F KetDBF=F FulRan=T
         wScrn=  0.000000 ICntrl=     600 IOpCl=  0 I1Cent=           0 NGrid=           0
         NMat0=    1 NMatS0=   5253 NMatT0=    0 NMatD0=    1 NMtDS0=    0 NMtDT0=    0
 Symmetry not used in FoFCou.

 Cycle   1  Pass 1  IDiag  1:
 Defaulting to unpruned grid for atomic number  53.
 Defaulting to unpruned grid for atomic number  53.
 Defaulting to unpruned grid for atomic number  53.
 Defaulting to unpruned grid for atomic number  53.
 E= -243.021469652283    
 DIIS: error= 2.82D-04 at cycle   1 NSaved=   1.
 NSaved= 1 IEnMin= 1 EnMin= -243.021469652283     IErMin= 1 ErrMin= 2.82D-04
 ErrMax= 2.82D-04  0.00D+00 EMaxC= 1.00D-01 BMatC= 1.31D-05 BMatP= 1.31D-05
 IDIUse=3 WtCom= 9.97D-01 WtEn= 2.82D-03
 Coeff-Com:  0.100D+01
 Coeff-En:   0.100D+01
 Coeff:      0.100D+01
 Gap=     0.785 Goal=   None    Shift=    0.000
 RMSDP=1.09D-04 MaxDP=8.38D-04              OVMax= 1.68D-03

 Cycle   2  Pass 1  IDiag  1:
 E= -243.021488600779     Delta-E=       -0.000018948496 Rises=F Damp=F
 DIIS: error= 1.25D-04 at cycle   2 NSaved=   2.
 NSaved= 2 IEnMin= 2 EnMin= -243.021488600779     IErMin= 2 ErrMin= 1.25D-04
 ErrMax= 1.25D-04  0.00D+00 EMaxC= 1.00D-01 BMatC= 1.00D-06 BMatP= 1.31D-05
 IDIUse=3 WtCom= 9.99D-01 WtEn= 1.25D-03
 Coeff-Com:  0.616D-01 0.938D+00
 Coeff-En:   0.000D+00 0.100D+01
 Coeff:      0.615D-01 0.938D+00
 Gap=     0.206 Goal=   None    Shift=    0.000
 RMSDP=2.54D-05 MaxDP=3.80D-04 DE=-1.89D-05 OVMax= 1.27D-03

 Cycle   3  Pass 1  IDiag  1:
 E= -243.021487345817     Delta-E=        0.000001254962 Rises=F Damp=F
 DIIS: error= 2.22D-04 at cycle   3 NSaved=   3.
 NSaved= 3 IEnMin= 2 EnMin= -243.021488600779     IErMin= 2 ErrMin= 1.25D-04
 ErrMax= 2.22D-04  0.00D+00 EMaxC= 1.00D-01 BMatC= 2.10D-06 BMatP= 1.00D-06
 IDIUse=3 WtCom= 4.02D-01 WtEn= 5.98D-01
 Coeff-Com: -0.291D-01 0.610D+00 0.419D+00
 Coeff-En:   0.000D+00 0.654D+00 0.346D+00
 Coeff:     -0.117D-01 0.636D+00 0.376D+00
 Gap=     0.206 Goal=   None    Shift=    0.000
 RMSDP=1.48D-05 MaxDP=2.28D-04 DE= 1.25D-06 OVMax= 8.23D-04

 Cycle   4  Pass 1  IDiag  1:
 E= -243.021489726013     Delta-E=       -0.000002380195 Rises=F Damp=F
 DIIS: error= 2.44D-05 at cycle   4 NSaved=   4.
 NSaved= 4 IEnMin= 4 EnMin= -243.021489726013     IErMin= 4 ErrMin= 2.44D-05
 ErrMax= 2.44D-05  0.00D+00 EMaxC= 1.00D-01 BMatC= 4.05D-08 BMatP= 1.00D-06
 IDIUse=1 WtCom= 1.00D+00 WtEn= 0.00D+00
 Coeff-Com: -0.154D-01 0.299D+00 0.195D+00 0.522D+00
 Coeff:     -0.154D-01 0.299D+00 0.195D+00 0.522D+00
[...]
 CISAX will form    20 AO SS matrices at one time.
 NMat=    20 NSing=    10 JSym2X= 0.
 Root      1 has converged.
 Root      2 has converged.
 Root      3 has converged.
 Root      4 has converged.
 Root      5 not converged, maximum delta is    0.001156829742677
 Root      6 has converged.
 Root      7 has converged.
 Root      8 not converged, maximum delta is    0.005935397639080
 Root      9 not converged, maximum delta is    0.006510522611337
 Root     10 not converged, maximum delta is    0.006069810241017
 Excitation Energies [eV] at current iteration:
 Root      1 :     3.702005764503219   Change is   -0.000111159771221
 Root      2 :     3.985349916464362   Change is   -0.000018056319240
 Root      3 :     4.537772616898561   Change is   -0.000066937972299
 Root      4 :     4.538077276937199   Change is   -0.000008506315446
 Root      5 :     4.593061971123668   Change is   -0.000057868955044
 Root      6 :     4.662738456958291   Change is   -0.000059050480828
 Root      7 :     5.216537043621604   Change is   -0.000018832152996
 Root      8 :     5.242574101044678   Change is   -0.001186327171904
 Root      9 :     5.277133320559029   Change is   -0.000598388746965
 Root     10 :     5.684799974183047   Change is   -0.003974952169622
 Iteration     5 Dimension   108 NMult   100 NNew      8
 CISAX will form     8 AO SS matrices at one time.
 NMat=     8 NSing=     6 JSym2X= 0.
 Root      1 has converged.
 Root      2 has converged.
 Root      3 has converged.
 Root      4 has converged.
 Root      5 has converged.
 Root      6 has converged.
 Root      7 has converged.
 Root      8 has converged.
 Root      9 has converged.
 Root     10 not converged, maximum delta is    0.002746085006306
 Excitation Energies [eV] at current iteration:
 Root      1 :     3.702005764502021   Change is   -0.000000000001199
 Root      2 :     3.985349916464362   Change is    0.000000000000000
 Root      3 :     4.537772616889738   Change is   -0.000000000008823
 Root      4 :     4.538077250614379   Change is   -0.000000026322820
 Root      5 :     4.593059965476748   Change is   -0.000002005646920
 Root      6 :     4.662738456924140   Change is   -0.000000000034151
 Root      7 :     5.216537043373683   Change is   -0.000000000247921
 Root      8 :     5.242523692671123   Change is   -0.000050408373555
 Root      9 :     5.277118407750260   Change is   -0.000014912808769
 Root     10 :     5.684311910046026   Change is   -0.000488064137021
 Iteration     6 Dimension   110 NMult   108 NNew      2
 CISAX will form     2 AO SS matrices at one time.
 NMat=     2 NSing=     2 JSym2X= 0.
 Root      1 has converged.
 Root      2 has converged.
 Root      3 has converged.
 Root      4 has converged.
 Root      5 has converged.
 Root      6 has converged.
 Root      7 has converged.
 Root      8 has converged.
 Root      9 has converged.
 Root     10 has converged.
 Excitation Energies [eV] at current iteration:
 Root      1 :     3.702005764502109   Change is    0.000000000000088
 Root      2 :     3.985349916464320   Change is   -0.000000000000042
 Root      3 :     4.537772616888651   Change is   -0.000000000001087
 Root      4 :     4.538077250614362   Change is   -0.000000000000018
 Root      5 :     4.593059965476837   Change is    0.000000000000089
 Root      6 :     4.662738456924106   Change is   -0.000000000000035
 Root      7 :     5.216537043373416   Change is   -0.000000000000267
 Root      8 :     5.242523692664255   Change is   -0.000000000006868
 Root      9 :     5.277118407747877   Change is   -0.000000000002384
 Root     10 :     5.684283372162001   Change is   -0.000028537884025
 Convergence achieved on expansion vectors.
 ***********************************************************************
 Excited states from <AA,BB:AA,BB> singles matrix:
 ***********************************************************************
 
 1PDM for each excited state written to RWF  633
 Ground to excited state transition densities written to RWF  633
 Ground to excited state transition electric dipole moments (Au):
       state          X           Y           Z        Dip. S.      Osc.
         1         0.0000      0.0000      0.0000      0.0000      0.0000
         2         0.0000      0.0000      0.0000      0.0000      0.0000
         3         0.0000      0.0000      0.1201      0.0144      0.0016
         4         0.0000      0.0000      0.0000      0.0000      0.0000
         5         0.0000      0.0000      0.0000      0.0000      0.0000
         6         0.0000      0.0000      0.0000      0.0000      0.0000
         7         0.0000      0.0001      0.0000      0.0000      0.0000
         8         0.0000     -0.1113      0.0000      0.0124      0.0016
         9         0.0000      0.1568      0.0000      0.0246      0.0032
        10         0.9383      0.0000      0.0000      0.8804      0.1226
 Ground to excited state transition velocity dipole moments (Au):
       state          X           Y           Z        Dip. S.      Osc.
         1         0.0000      0.0000      0.0000      0.0000      0.0000
         2         0.0000      0.0000      0.0000      0.0000      0.0000
         3         0.0000      0.0000      0.0213      0.0005      0.0018
         4         0.0000      0.0000      0.0000      0.0000      0.0000
         5         0.0000      0.0000      0.0000      0.0000      0.0000
         6         0.0000      0.0000      0.0000      0.0000      0.0000
         7         0.0000      0.0000      0.0000      0.0000      0.0000
         8         0.0000      0.0497      0.0000      0.0025      0.0085
         9         0.0000     -0.0004      0.0000      0.0000      0.0000
        10        -0.1601      0.0000      0.0000      0.0256      0.0818
 Ground to excited state transition magnetic dipole moments (Au):
       state          X           Y           Z
         1         0.0000      0.0000      0.0000
         2         0.0000      0.0000      0.0000
         3         0.0000      0.3150      0.0000
         4         0.0000      0.0000      0.0000
         5         0.0000      0.0000      0.0000
         6         0.0000      0.0000      0.0000
         7         0.1609      0.0000      0.0005
         8         0.0001      0.0000     -0.6462
         9         0.0000      0.0000     -0.5675
        10         0.0000      0.0000      0.0001
 Ground to excited state transition velocity quadrupole moments (Au):
       state          XX          YY          ZZ          XY          XZ          YZ
         1         0.0000      0.0000      0.0000      0.0000      0.0000      0.0000
         2         0.0000      0.0000      0.0000      0.0000      0.0000      0.0000
         3         0.0000      0.0000      0.0000      0.0000      0.1950      0.0000
         4         0.0000      0.0000      0.0000      0.0000      0.0000      0.0000
         5         0.0000      0.0000      0.0000      0.0000      0.0000      0.0000
         6         0.0000      0.0000      0.0000      0.0000      0.0000      0.0000
         7         0.0000      0.0000      0.0000      0.0000      0.0000      0.0566
         8         0.0000      0.0000      0.0000     -0.0349      0.0000      0.0000
         9         0.0000      0.0000      0.0000      0.2180      0.0000      0.0000
        10         0.7149      0.0958     -0.0749      0.0000      0.0000      0.0000
 <0|del|b> * <b|rxdel|0> + <0|del|b> * <b|delr+rdel|0>
 Rotatory Strengths (R) in cgs (10**-40 erg-esu-cm/Gauss)
       state          XX          YY          ZZ    R(velocity)    E-M Angle
         1         0.0000      0.0000      0.0000      0.0000       90.00
         2         0.0000      0.0000      0.0000      0.0000       90.00
         3         0.0000      0.0000     -0.0002      0.0000       90.00
         4         0.0000      0.0000      0.0000      0.0000       90.00
         5         0.0000      0.0000      0.0000      0.0000       90.00
         6         0.0000      0.0000      0.0000      0.0000       90.00
         7         0.0000     -0.0002     -0.0001     -0.0001       90.00
         8         0.0001      0.0000      0.0001      0.0001       90.00
         9         0.0001      0.0002      0.0000      0.0001       90.00
        10         0.0000      0.0003      0.0000      0.0001       90.00
 1/2[<0|r|b>*<b|rxdel|0> + (<0|rxdel|b>*<b|r|0>)*]
 Rotatory Strengths (R) in cgs (10**-40 erg-esu-cm/Gauss)
       state          XX          YY          ZZ     R(length)
         1         0.0000      0.0000      0.0000      0.0000
         2         0.0000      0.0000      0.0000      0.0000
         3         0.0000     -0.0002      0.0000     -0.0001
         4         0.0000      0.0000      0.0000      0.0000
         5         0.0000      0.0000      0.0000      0.0000
         6         0.0000      0.0000      0.0000      0.0000
         7        -0.0003      0.0000      0.0000     -0.0001
         8         0.0000      0.0001      0.0003      0.0001
         9         0.0000      0.0002     -0.0002      0.0000
        10         0.0004      0.0000      0.0000      0.0001
  1/2[<0|del|b>*<b|r|0> + (<0|r|b>*<b|del|0>)*] (Au)
       state          X           Y           Z        Dip. S.   Osc.(frdel)
         1         0.0000      0.0000      0.0000      0.0000      0.0000
         2         0.0000      0.0000      0.0000      0.0000      0.0000
         3         0.0000      0.0000      0.0026     -0.0026     -0.0017
         4         0.0000      0.0000      0.0000      0.0000      0.0000
         5         0.0000      0.0000      0.0000      0.0000      0.0000
         6         0.0000      0.0000      0.0000      0.0000      0.0000
         7         0.0000      0.0000      0.0000      0.0000      0.0000
         8         0.0000     -0.0055      0.0000      0.0055      0.0037
         9         0.0000     -0.0001      0.0000      0.0001      0.0000
        10        -0.1503      0.0000      0.0000      0.1503      0.1002

 Excitation energies and oscillator strengths:
 
 Excited State   1:      Triplet-A      3.7020 eV  334.91 nm  f=0.0000  <S**2>=2.000
      18 -> 30         0.10508
      21 -> 26        -0.24319
      23 -> 27         0.45505
      24 -> 26         0.48900
 This state for optimization and/or second-order correction.
 Total Energy, E(TD-HF/TD-KS) =  -242.885447762    
 Copying the excited state density for this state as the 1-particle RhoCI density.
 
 Excited State   2:      Triplet-A      3.9853 eV  311.10 nm  f=0.0000  <S**2>=2.000
      24 -> 25         0.70138
 
 Excited State   3:      Singlet-A      4.5378 eV  273.23 nm  f=0.0016  <S**2>=0.000
      24 -> 25         0.70605
 
 Excited State   4:      Triplet-A      4.5381 eV  273.21 nm  f=0.0000  <S**2>=2.000
      22 -> 25         0.70133
 
 Excited State   5:      Triplet-A      4.5931 eV  269.94 nm  f=0.0000  <S**2>=2.000
      21 -> 27        -0.18882
      23 -> 26         0.31059
      24 -> 27         0.60077
 
 Excited State   6:      Triplet-A      4.6627 eV  265.90 nm  f=0.0000  <S**2>=2.000
      21 -> 26         0.13463
      23 -> 27         0.54150
      24 -> 26        -0.43468
 
 Excited State   7:      Singlet-A      5.2165 eV  237.68 nm  f=0.0000  <S**2>=0.000
      23 -> 25         0.70682
 
 Excited State   8:      Singlet-A      5.2425 eV  236.50 nm  f=0.0016  <S**2>=0.000
      22 -> 25         0.27904
      23 -> 26        -0.33975
      24 -> 27         0.55097
 
 Excited State   9:      Singlet-A      5.2771 eV  234.95 nm  f=0.0032  <S**2>=0.000
      22 -> 25         0.64965
      23 -> 26         0.14072
      24 -> 27        -0.24046
 
 Excited State  10:      Singlet-A      5.6843 eV  218.12 nm  f=0.1226  <S**2>=0.000
      21 -> 26         0.11771
      23 -> 27         0.17771
      24 -> 26         0.67068
 SavETr:  write IOETrn=   770 NScale= 10 NData=  16 NLR=1 NState=   10 LETran=     190.
 Leave Link  914 at Tue Jan 29 13:54:25 2019, MaxMem=   939524096 cpu:       243.8
 (Enter /usr/local/gaussian09/g09/l601.exe)
 Copying SCF densities to generalized density rwf, IOpCl= 0 IROHF=0.

 **********************************************************************

            Population analysis using the SCF density.

 **********************************************************************

 Orbital symmetries:
       Occupied  (A) (A) (A) (A) (A) (A) (A) (A) (A) (A) (A) (A)
                 (A) (A) (A) (A) (A) (A) (A) (A) (A) (A) (A) (A)
       Virtual   (A) (A) (A) (A) (A) (A) (A) (A) (A) (A) (A) (A)
                 (A) (A) (A) (A) (A) (A) (A) (A) (A) (A) (A) (A)
                 (A) (A) (A) (A) (A) (A) (A) (A) (A) (A) (A) (A)
                 (A) (A) (A) (A) (A) (A) (A) (A) (A) (A) (A) (A)
                 (A) (A) (A) (A) (A) (A) (A) (A) (A) (A) (A) (A)
                 (A) (A) (A) (A) (A) (A) (A) (A) (A) (A) (A) (A)
                 (A) (A) (A) (A) (A) (A)
 The electronic state is 1-A.
 Alpha  occ. eigenvalues --  -10.23926 -10.20083 -10.20083 -10.19800 -10.19796
 Alpha  occ. eigenvalues --  -10.19536  -0.86767  -0.76709  -0.75851  -0.67667
 Alpha  occ. eigenvalues --   -0.61800  -0.59562  -0.52247  -0.46329  -0.46176
 Alpha  occ. eigenvalues --   -0.43490  -0.40904  -0.38237  -0.36071  -0.33722
 Alpha  occ. eigenvalues --   -0.29379  -0.26601  -0.26279  -0.23914
 Alpha virt. eigenvalues --   -0.03337  -0.01340  -0.01302   0.09742   0.13441
 Alpha virt. eigenvalues --    0.14594   0.15431   0.17748   0.17825   0.27901
 Alpha virt. eigenvalues --    0.28301   0.29521   0.29965   0.36476   0.39183
 Alpha virt. eigenvalues --    0.39721   0.47918   0.51815   0.53180   0.55225
 Alpha virt. eigenvalues --    0.56815   0.58693   0.58783   0.59839   0.60262
 Alpha virt. eigenvalues --    0.60587   0.61763   0.65284   0.65920   0.67096
 Alpha virt. eigenvalues --    0.73558   0.82920   0.83222   0.84783   0.85864
 Alpha virt. eigenvalues --    0.91709   0.92748   0.93659   0.96467   1.05388
 Alpha virt. eigenvalues --    1.08571   1.09136   1.13623   1.16701   1.24102
 Alpha virt. eigenvalues --    1.32568   1.38011   1.42238   1.46259   1.47138
 Alpha virt. eigenvalues --    1.49699   1.49768   1.69528   1.75620   1.77796
 Alpha virt. eigenvalues --    1.86121   1.93580   1.95696   2.04689   2.05365
 Alpha virt. eigenvalues --    2.13099   2.13456   2.13669   2.13993   2.28883
 Alpha virt. eigenvalues --    2.29048   2.30437   2.49581   2.53788   2.63724
 Alpha virt. eigenvalues --    2.64188   2.68194   2.71249   2.72033   2.74670
 Alpha virt. eigenvalues --    3.00611   3.35792   9.93748
          Condensed to atoms (all electrons):
               1          2          3          4          5          6
     1  C    4.829048   0.544823  -0.018160  -0.041498  -0.025202   0.544095
     2  C    0.544823   4.858703   0.505941  -0.030290  -0.041498  -0.020709
     3  C   -0.018160   0.505941   5.195015   0.505917  -0.018160  -0.055015
     4  C   -0.041498  -0.030290   0.505917   4.858702   0.544843  -0.020709
     5  C   -0.025202  -0.041498  -0.018160   0.544843   4.829048   0.544076
     6  C    0.544095  -0.020709  -0.055015  -0.020709   0.544076   4.846061
     7  H    0.363113  -0.044868   0.005933   0.000458   0.004681  -0.042624
     8  H   -0.035593   0.363017  -0.040838   0.003980   0.000568   0.004388
     9  H    0.000568   0.003980  -0.040839   0.363017  -0.035592   0.004388
    10  H    0.004681   0.000458   0.005932  -0.044868   0.363113  -0.042624
    11  H   -0.042436   0.004970   0.000380   0.004970  -0.042436   0.361634
    12  I    0.001315  -0.063341   0.262389  -0.063348   0.001315   0.001367
               7          8          9         10         11         12
     1  C    0.363113  -0.035593   0.000568   0.004681  -0.042436   0.001315
     2  C   -0.044868   0.363017   0.003980   0.000458   0.004970  -0.063341
     3  C    0.005933  -0.040838  -0.040839   0.005932   0.000380   0.262389
     4  C    0.000458   0.003980   0.363017  -0.044868   0.004970  -0.063348
     5  C    0.004681   0.000568  -0.035592   0.363113  -0.042436   0.001315
     6  C   -0.042624   0.004388   0.004388  -0.042624   0.361634   0.001367
     7  H    0.585878  -0.005990   0.000013  -0.000178  -0.005743  -0.000253
     8  H   -0.005990   0.561696  -0.000155   0.000013  -0.000162  -0.001661
     9  H    0.000013  -0.000155   0.561696  -0.005990  -0.000162  -0.001661
    10  H   -0.000178   0.000013  -0.005990   0.585877  -0.005743  -0.000253
    11  H   -0.005743  -0.000162  -0.000162  -0.005743   0.587338   0.000027
    12  I   -0.000253  -0.001661  -0.001661  -0.000253   0.000027   6.737405
 Mulliken charges:
               1
     1  C   -0.124755
     2  C   -0.081186
     3  C   -0.308495
     4  C   -0.081175
     5  C   -0.124755
     6  C   -0.124328
     7  H    0.139581
     8  H    0.150737
     9  H    0.150737
    10  H    0.139581
    11  H    0.137361
    12  I    0.126697
 Sum of Mulliken charges =   0.00000
 Mulliken charges with hydrogens summed into heavy atoms:
               1
     1  C    0.014826
     2  C    0.069551
     3  C   -0.308495
     4  C    0.069562
     5  C    0.014827
     6  C    0.013033
    12  I    0.126697
 Electronic spatial extent (au):  <R**2>=           1138.3429
 Charge=              0.0000 electrons
 Dipole moment (field-independent basis, Debye):
    X=             -1.8621    Y=              0.0000    Z=              0.0000  Tot=              1.8621
 Quadrupole moment (field-independent basis, Debye-Ang):
   XX=            -47.7358   YY=            -49.7922   ZZ=            -58.5598
   XY=              0.0000   XZ=              0.0001   YZ=              0.0000
 Traceless Quadrupole moment (field-independent basis, Debye-Ang):
   XX=              4.2935   YY=              2.2371   ZZ=             -6.5305
   XY=              0.0000   XZ=              0.0001   YZ=              0.0000
 Octapole moment (field-independent basis, Debye-Ang**2):
  XXX=             91.3490  YYY=              0.0005  ZZZ=             -0.0003  XYY=             26.1563
  XXY=             -0.0007  XXZ=             -0.0008  XZZ=             42.4330  YZZ=              0.0000
  YYZ=             -0.0001  XYZ=              0.0000
 Hexadecapole moment (field-independent basis, Debye-Ang**3):
 XXXX=          -1253.1081 YYYY=           -296.4761 ZZZZ=            -76.9697 XXXY=              0.0023
 XXXZ=              0.0012 YYYX=             -0.0009 YYYZ=             -0.0001 ZZZX=             -0.0004
 ZZZY=              0.0000 XXYY=           -267.0993 XXZZ=           -270.6665 YYZZ=            -72.0542
 XXYZ=             -0.0001 YYXZ=              0.0002 ZZXY=              0.0000
 N-N= 2.377402798355D+02 E-N=-1.033522927356D+03  KE= 2.332243381214D+02
 Leave Link  601 at Tue Jan 29 13:54:26 2019, MaxMem=   939524096 cpu:         0.3
 (Enter /usr/local/gaussian09/g09/l9999.exe)
 1\1\GINC-UNIT3LINUX01\SP\RB3LYP TD-FC\Gen\C6H5I1\WTARRAN\29-Jan-2019\0
 \\#p TD=(50-50,nstates=5) B3LYP/chkbas geom=check guess=read\\TD-DFT a
 t previous geom (S0?) using S0 as reference state\\0,1\C,0,-1.75569657
 69,-1.8465676761,0.0012416185\C,0,-0.3581448238,-1.8551366336,0.001742
 0383\C,0,0.3248218316,-0.6395453546,0.0012050767\C,0,-0.3580465211,0.5
 761270681,0.0001856852\C,0,-1.7555746479,0.5676882035,-0.0002987543\C,
 0,-2.45620677,-0.6394185633,0.0002244154\H,0,-2.2928117801,-2.79132134
 69,0.0016644154\H,0,0.1831978603,-2.794923308,0.0025368922\H,0,0.18341
 2735,1.5158477321,-0.0002264095\H,0,-2.2926401409,1.5124700394,-0.0010
 89186\H,0,-3.5424686171,-0.6393496244,-0.0001564078\I,0,2.4728921008,-
 0.6395955661,0.0020243359\\Version=EM64L-G09RevD.01\State=1-A\HF=-243.
 021494\RMSD=5.428e-09\PG=C01 [X(C6H5I1)]\\@


  THE LARGE PRINT GIVETH,
  AND THE SMALL PRINT TAKETH AWAY.

                     -- TOM WAITS
 Job cpu time:       0 days  0 hours  4 minutes 18.4 seconds.
 File lengths (MBytes):  RWF=     42 Int=      0 D2E=      0 Chk=      6 Scr=      1
 Normal termination of Gaussian 09 at Tue Jan 29 13:54:26 2019.
